LAMMPS data file via write_data, version 29 Mar 2019, timestep = 20000000

32 atoms
1 atom types

-1.5000000000000000e+03 1.5000000000000000e+03 xlo xhi
-1.5000000000000000e+03 1.5000000000000000e+03 ylo yhi
-1.5000000000000000e+03 1.5000000000000000e+03 zlo zhi

Masses

1 0.00054858

Pair Coeffs # gauss/cut

1 0.0355436 0 33.6721

Atoms # atomic

1 1 1.8151353312143897e+02 1.2093670075479901e+02 0.0000000000000000e+00 0 0 0
2 1 -1.4142713531358010e+02 1.3188825953251808e+02 0.0000000000000000e+00 0 0 0
3 1 5.0502742305542924e+01 -1.7862871488273726e+01 0.0000000000000000e+00 0 0 0
4 1 -4.1406249270389189e+01 1.6569188410860653e+02 0.0000000000000000e+00 0 0 0
5 1 -5.2412190668415668e+01 1.5146054166464688e+02 0.0000000000000000e+00 0 0 0
6 1 -2.0494234529706046e+02 -4.8340704471524802e+01 0.0000000000000000e+00 0 0 0
7 1 2.2602615807312798e+01 1.5778757169125100e+02 0.0000000000000000e+00 0 0 0
8 1 -6.0533465831541079e+01 -2.2974722472425734e+02 0.0000000000000000e+00 0 0 0
9 1 -5.1537839719866206e+01 9.9026553661782135e-01 0.0000000000000000e+00 0 0 0
10 1 1.5644100357581090e+02 -1.7424332675816609e+02 0.0000000000000000e+00 0 0 0
11 1 1.6823452084668963e+02 -5.6723941714327516e+01 0.0000000000000000e+00 0 0 0
12 1 1.4231594924373684e+02 6.1819266861905646e+01 0.0000000000000000e+00 0 0 0
13 1 -9.1391352148567378e+01 3.3997608548319945e+01 0.0000000000000000e+00 0 0 0
14 1 1.1165980462909060e+02 5.4878883490255568e+01 0.0000000000000000e+00 0 0 0
15 1 1.9843255719970472e+02 1.0737365329258843e+02 0.0000000000000000e+00 0 0 0
16 1 -2.1770999539025675e+02 -1.1028858142050906e+01 0.0000000000000000e+00 0 0 0
17 1 -1.0805409067928657e+02 -1.8102007048990134e+02 0.0000000000000000e+00 0 0 0
18 1 1.6566383623429005e+02 -2.4766161185297594e+02 0.0000000000000000e+00 0 0 0
19 1 1.5790072126395046e+02 1.3776079326616681e+02 0.0000000000000000e+00 0 0 0
20 1 -5.2599891453372105e-01 1.7320391020468284e+02 0.0000000000000000e+00 0 0 0
21 1 1.6940571029655001e+02 -5.2688502300695482e+01 0.0000000000000000e+00 0 0 0
22 1 -7.2576145518211206e+01 -2.9724624218346982e+01 0.0000000000000000e+00 0 0 0
23 1 -9.9323277720813564e+01 1.1026661525591827e+02 0.0000000000000000e+00 0 0 0
24 1 4.3772029554182687e+01 2.3095080129029292e+01 0.0000000000000000e+00 0 0 0
25 1 2.0097284667919972e+01 -7.2861299779761879e+01 0.0000000000000000e+00 0 0 0
26 1 -5.8774172695221964e+01 6.8406769751195398e+01 0.0000000000000000e+00 0 0 0
27 1 -1.3388403096770327e+02 5.0024096213324633e+01 0.0000000000000000e+00 0 0 0
28 1 5.9909400778121977e+01 5.4434898073354567e+01 0.0000000000000000e+00 0 0 0
29 1 -1.3110477121803129e+02 -1.1959830630071106e+02 0.0000000000000000e+00 0 0 0
30 1 -6.9945467027925204e+01 -1.8322615883391046e+02 0.0000000000000000e+00 0 0 0
31 1 -1.9065430239779604e+02 -1.5274313351816014e+02 0.0000000000000000e+00 0 0 0
32 1 7.1627603429944040e+00 -1.9228131981692496e+01 0.0000000000000000e+00 0 0 0

Velocities

1 4.5439910122846211e-03 5.9828457087560578e-03 0.0000000000000000e+00
2 3.4296542007810134e-02 3.6095346576230855e-02 0.0000000000000000e+00
3 -2.7563230952967553e-02 2.7979969383603396e-02 0.0000000000000000e+00
4 2.5985588915416691e-02 3.5650619183592046e-02 0.0000000000000000e+00
5 1.7146769526430173e-02 3.4994832930360077e-02 0.0000000000000000e+00
6 2.8783282055879472e-02 -7.0008471943600699e-03 0.0000000000000000e+00
7 2.7239398597751992e-02 -1.4340351478329891e-02 0.0000000000000000e+00
8 -1.0243660299175224e-02 -2.7854304692804316e-03 0.0000000000000000e+00
9 6.5502438682667162e-03 -3.0174792305419627e-03 0.0000000000000000e+00
10 -1.4869675713914225e-02 -3.0157786350932216e-02 0.0000000000000000e+00
11 4.5040451989886683e-03 -2.3212742370875984e-02 0.0000000000000000e+00
12 -2.0185374114486771e-03 3.5286252312502195e-02 0.0000000000000000e+00
13 -3.0032033346397888e-03 3.4745922975999079e-02 0.0000000000000000e+00
14 -3.1939881024460118e-03 -8.0602761197126841e-03 0.0000000000000000e+00
15 -5.5174671884454405e-03 -2.3878953082128909e-02 0.0000000000000000e+00
16 -1.3931800880024237e-02 7.1323049540596714e-03 0.0000000000000000e+00
17 8.4661632040904447e-03 5.4887926372355787e-03 0.0000000000000000e+00
18 -2.3559621116087694e-02 1.7703574029728008e-02 0.0000000000000000e+00
19 -3.1961464255700178e-02 3.4283066684772753e-02 0.0000000000000000e+00
20 2.1234069443052629e-03 5.6365519591083425e-04 0.0000000000000000e+00
21 1.6572435179747238e-02 1.1089719367918614e-02 0.0000000000000000e+00
22 5.5777538205869165e-03 5.7484593280217305e-03 0.0000000000000000e+00
23 4.7143527488460443e-02 -7.3377244484193957e-03 0.0000000000000000e+00
24 1.4757315560032458e-02 5.2157289203278783e-03 0.0000000000000000e+00
25 4.1453464403467082e-02 -4.6368942719808908e-03 0.0000000000000000e+00
26 -1.3986168141014022e-02 2.8917373979155572e-02 0.0000000000000000e+00
27 2.1191475971413760e-02 1.9843865615109811e-04 0.0000000000000000e+00
28 2.4277578125776422e-02 -3.8427023481589523e-02 0.0000000000000000e+00
29 -1.3092700839880244e-02 -3.7498669715493267e-02 0.0000000000000000e+00
30 3.2296008008782908e-03 1.2195408668452029e-03 0.0000000000000000e+00
31 1.6597978600221392e-03 -2.0016797636999772e-02 0.0000000000000000e+00
32 1.3664003105454780e-02 -1.7620817876080830e-02 0.0000000000000000e+00
