LAMMPS data file via write_data, version 29 Mar 2019, timestep = 20000000

32 atoms
1 atom types

-1.5000000000000000e+03 1.5000000000000000e+03 xlo xhi
-1.5000000000000000e+03 1.5000000000000000e+03 ylo yhi
-1.5000000000000000e+03 1.5000000000000000e+03 zlo zhi

Masses

1 0.00054858

Pair Coeffs # gauss/cut

1 0.0118479 0 33.6721

Atoms # atomic

1 1 -3.5529895386278696e+01 -9.5340941903252045e+01 0.0000000000000000e+00 0 0 0
2 1 -6.1164995162626731e+01 -1.3295234795405591e+02 0.0000000000000000e+00 0 0 0
3 1 1.3246393351129109e+02 1.6324104161856880e+01 0.0000000000000000e+00 0 0 0
4 1 6.3208691870184941e+00 -1.5518903368859108e+02 0.0000000000000000e+00 0 0 0
5 1 -7.3494253778664373e+01 -2.0485465837485162e+02 0.0000000000000000e+00 0 0 0
6 1 2.4227157286327436e+00 -1.4901424183271853e+01 0.0000000000000000e+00 0 0 0
7 1 1.3978179514706963e+02 -1.6429555126520165e+02 0.0000000000000000e+00 0 0 0
8 1 -2.0925275786929689e+01 -2.1894863585179161e+02 0.0000000000000000e+00 0 0 0
9 1 -5.4215510551784206e+01 -9.6978237340024378e+01 0.0000000000000000e+00 0 0 0
10 1 -1.2837147321631182e+00 1.5013819505566056e+02 0.0000000000000000e+00 0 0 0
11 1 1.7143665215219582e+02 6.9706122173275972e+01 0.0000000000000000e+00 0 0 0
12 1 -1.0649202622684631e+02 -1.5761855009924579e+02 0.0000000000000000e+00 0 0 0
13 1 1.3476162264426277e+01 -6.0776826940021081e+01 0.0000000000000000e+00 0 0 0
14 1 -7.3388104309853816e+01 -9.7405579047697074e+01 0.0000000000000000e+00 0 0 0
15 1 -9.6688501778082696e+01 1.6569684069979644e+01 0.0000000000000000e+00 0 0 0
16 1 4.0332987144623139e+01 -1.4855144692291523e+02 0.0000000000000000e+00 0 0 0
17 1 1.2746354803721371e+02 1.1075841617500427e+02 0.0000000000000000e+00 0 0 0
18 1 5.0549186557327715e+01 4.0496484072350505e+01 0.0000000000000000e+00 0 0 0
19 1 7.0973444861924634e+01 5.4927309113566771e+01 0.0000000000000000e+00 0 0 0
20 1 -5.1016845835933346e+01 -5.5919379505352840e+00 0.0000000000000000e+00 0 0 0
21 1 -1.2595663368433907e+02 -3.5896598429954409e+01 0.0000000000000000e+00 0 0 0
22 1 3.7144178645651742e+01 1.1724480387185221e+01 0.0000000000000000e+00 0 0 0
23 1 -4.3746973926566092e+01 7.0740415372686044e+01 0.0000000000000000e+00 0 0 0
24 1 -1.6992879163827293e+01 4.7911718070600948e+01 0.0000000000000000e+00 0 0 0
25 1 5.8520995544957898e+01 -1.5204883953274750e+00 0.0000000000000000e+00 0 0 0
26 1 5.8917654234745982e+01 -9.8903081352204836e+01 0.0000000000000000e+00 0 0 0
27 1 -1.2284351372570204e+02 6.0938347059233713e+01 0.0000000000000000e+00 0 0 0
28 1 3.1717469098410906e+01 -6.3080521000639685e+01 0.0000000000000000e+00 0 0 0
29 1 1.5891555183481520e+02 -3.8028252495887799e+01 0.0000000000000000e+00 0 0 0
30 1 1.3549498994605773e+02 -2.5058802809281055e+01 0.0000000000000000e+00 0 0 0
31 1 1.3406490895264275e+02 -1.4744467371545915e+02 0.0000000000000000e+00 0 0 0
32 1 -4.6840379412047666e+00 6.4917706435208459e+01 0.0000000000000000e+00 0 0 0

Velocities

1 1.0917106426661100e-02 3.3963221136329068e-02 0.0000000000000000e+00
2 1.1049931836911515e-02 3.3602867214046614e-03 0.0000000000000000e+00
3 2.8599223809615867e-02 5.2901226502706823e-03 0.0000000000000000e+00
4 -1.7503854669905630e-02 3.0646808323339020e-02 0.0000000000000000e+00
5 5.3113266514895834e-02 -1.6332859858363320e-02 0.0000000000000000e+00
6 -3.1079022059368189e-02 -1.9722269891976701e-02 0.0000000000000000e+00
7 1.3058172544752580e-02 -4.9849005506208879e-03 0.0000000000000000e+00
8 -1.3681339169376110e-03 4.3162263699359042e-02 0.0000000000000000e+00
9 -8.9078526555460384e-03 -1.0285612551784836e-02 0.0000000000000000e+00
10 1.2233953966956869e-02 -2.7987719841271332e-02 0.0000000000000000e+00
11 -2.6073044452264448e-02 -3.8010841018761898e-02 0.0000000000000000e+00
12 5.6548173529110700e-02 7.1821802924910243e-03 0.0000000000000000e+00
13 3.2042577351563663e-02 -4.3824651024789033e-03 0.0000000000000000e+00
14 3.3968355428402708e-02 5.6103900525014433e-02 0.0000000000000000e+00
15 7.3682363056478017e-02 2.1392417929029317e-03 0.0000000000000000e+00
16 -5.0074254628933716e-02 -3.3063848264891928e-02 0.0000000000000000e+00
17 -2.0924976537732901e-02 -1.5095797297373564e-02 0.0000000000000000e+00
18 -1.6867131773796163e-02 2.5276521009146236e-02 0.0000000000000000e+00
19 2.9315516106658702e-02 1.8747384416029456e-02 0.0000000000000000e+00
20 -6.4153996122123360e-03 1.4224045738890427e-02 0.0000000000000000e+00
21 3.0652700725991414e-02 -1.6393833188687427e-02 0.0000000000000000e+00
22 -8.0443548382401007e-03 -8.8534434611780548e-03 0.0000000000000000e+00
23 3.6343722863835581e-02 1.2029727697761911e-02 0.0000000000000000e+00
24 3.2692755370543489e-02 -5.5077209217435207e-03 0.0000000000000000e+00
25 -4.4632865330082793e-03 5.1782901152063354e-02 0.0000000000000000e+00
26 4.8388859200248725e-03 2.2189302902333317e-02 0.0000000000000000e+00
27 3.6635510109205953e-02 -8.8749383001210450e-03 0.0000000000000000e+00
28 1.5492408885714008e-02 -5.9763455745382964e-02 0.0000000000000000e+00
29 3.7633546571776866e-02 2.6877581796120601e-02 0.0000000000000000e+00
30 2.4665230913916900e-02 -1.1477695309184405e-02 0.0000000000000000e+00
31 -7.1459860540021162e-03 1.4499909690555979e-02 0.0000000000000000e+00
32 3.9117998990673114e-02 -6.0086849258237261e-03 0.0000000000000000e+00
