LAMMPS data file via write_data, version 29 Mar 2019, timestep = 20000000

32 atoms
1 atom types

-1.5000000000000000e+03 1.5000000000000000e+03 xlo xhi
-1.5000000000000000e+03 1.5000000000000000e+03 ylo yhi
-1.5000000000000000e+03 1.5000000000000000e+03 zlo zhi

Masses

1 0.00054858

Pair Coeffs # gauss/cut

1 0.0355436 0 33.6721

Atoms # atomic

1 1 3.3302392909528470e+02 8.1788002195859292e+01 0.0000000000000000e+00 0 0 0
2 1 -1.3860786596951880e+02 2.0055856330951792e+02 0.0000000000000000e+00 0 0 0
3 1 7.6538383558283369e+00 -3.4437329970884235e+01 0.0000000000000000e+00 0 0 0
4 1 -6.6080441155531915e+01 1.6087940637543804e+02 0.0000000000000000e+00 0 0 0
5 1 8.0939399269899098e+01 1.7284059326501344e+02 0.0000000000000000e+00 0 0 0
6 1 -2.0252945489288624e+02 -4.6302562062586112e+00 0.0000000000000000e+00 0 0 0
7 1 8.8500204621263748e+01 1.6738629541896086e+02 0.0000000000000000e+00 0 0 0
8 1 3.8830236713245633e+01 -2.4590626237748512e+02 0.0000000000000000e+00 0 0 0
9 1 -1.3320586482100961e+02 -1.0903731051457841e+02 0.0000000000000000e+00 0 0 0
10 1 2.7989113014709199e+02 -9.5361334732565979e+01 0.0000000000000000e+00 0 0 0
11 1 1.8704176942595549e+02 1.0645571272549037e+02 0.0000000000000000e+00 0 0 0
12 1 1.0328210293729968e+02 -2.0156196389590204e+02 0.0000000000000000e+00 0 0 0
13 1 -1.7794192315206891e+02 1.1316135048412812e-01 0.0000000000000000e+00 0 0 0
14 1 2.3165960149108182e+02 -5.3093595911068427e+01 0.0000000000000000e+00 0 0 0
15 1 1.1699617797623883e+02 -2.0266454213081005e+01 0.0000000000000000e+00 0 0 0
16 1 -1.7615758341949405e+02 -6.3646295251239088e+01 0.0000000000000000e+00 0 0 0
17 1 -1.8816667046468552e+02 -1.8118291653078867e+02 0.0000000000000000e+00 0 0 0
18 1 1.6549987472972498e+02 -1.2171754867424309e+02 0.0000000000000000e+00 0 0 0
19 1 5.3338734734207371e+01 1.7667311924277357e+02 0.0000000000000000e+00 0 0 0
20 1 -1.0357151947080381e+02 -2.2783913203473389e+01 0.0000000000000000e+00 0 0 0
21 1 1.7823715282181027e+02 -9.7511930256391430e+00 0.0000000000000000e+00 0 0 0
22 1 -1.2859500596306268e+02 1.0489881606786497e+02 0.0000000000000000e+00 0 0 0
23 1 7.2239595563912559e+01 1.2426975931519297e+02 0.0000000000000000e+00 0 0 0
24 1 1.1772083525727293e+01 -1.6748562267689568e+01 0.0000000000000000e+00 0 0 0
25 1 3.2464980948285820e+01 -7.2000017061902355e+01 0.0000000000000000e+00 0 0 0
26 1 -2.2290772594297003e+01 1.6621375932058586e+02 0.0000000000000000e+00 0 0 0
27 1 -9.9993186162397308e+01 3.3722200075692641e+01 0.0000000000000000e+00 0 0 0
28 1 8.5619927379158895e+01 8.8321528277866435e+00 0.0000000000000000e+00 0 0 0
29 1 -1.0695006273290051e+02 -9.5086613444141960e+01 0.0000000000000000e+00 0 0 0
30 1 3.3114302425986594e+01 -2.2341270187985464e+02 0.0000000000000000e+00 0 0 0
31 1 -6.9929702727314293e+01 -1.8442724831554281e+02 0.0000000000000000e+00 0 0 0
32 1 -6.2175653933038070e+01 5.0458379524138913e+01 0.0000000000000000e+00 0 0 0

Velocities

1 1.2267267720621006e-02 -1.4974153042359734e-02 0.0000000000000000e+00
2 1.8018919693816636e-03 2.9943471513467525e-02 0.0000000000000000e+00
3 -7.0040778631458569e-03 -1.3971504279768772e-03 0.0000000000000000e+00
4 1.1643403952267250e-02 -1.6400788639489221e-02 0.0000000000000000e+00
5 3.4313904729470809e-02 -2.7342268136340496e-03 0.0000000000000000e+00
6 1.1370960954820280e-02 -6.1727516378684106e-03 0.0000000000000000e+00
7 3.7812904254886531e-03 -1.8574625242999177e-02 0.0000000000000000e+00
8 -3.9994284228590631e-03 1.1741478310312388e-02 0.0000000000000000e+00
9 -1.1608958364891116e-02 5.4690989421649593e-03 0.0000000000000000e+00
10 -6.2068853320851342e-03 -4.7487917323597497e-03 0.0000000000000000e+00
11 -2.8658225682238657e-02 3.4082629978982563e-04 0.0000000000000000e+00
12 -2.0010761708752038e-02 1.9069418968329050e-02 0.0000000000000000e+00
13 -6.0614996466711061e-03 -6.8907972979779424e-03 0.0000000000000000e+00
14 1.4287261645748810e-03 -2.4087698681381765e-02 0.0000000000000000e+00
15 -3.0516572546471147e-03 -3.3185211964094775e-02 0.0000000000000000e+00
16 2.1927132185799756e-02 8.1829864284840344e-03 0.0000000000000000e+00
17 7.5399875802839734e-03 -3.4127075021344200e-03 0.0000000000000000e+00
18 3.6251315051736406e-02 1.4292567599549331e-02 0.0000000000000000e+00
19 1.5455772639575588e-02 -6.9056317413553362e-03 0.0000000000000000e+00
20 3.0132384717752311e-02 6.7951968856162495e-03 0.0000000000000000e+00
21 1.1095466352024503e-02 -9.9133823052600500e-03 0.0000000000000000e+00
22 7.9069529919250960e-03 2.6518325762433514e-02 0.0000000000000000e+00
23 -1.7767944860872292e-03 -2.4046728137574670e-02 0.0000000000000000e+00
24 5.1323655030651944e-03 -5.5277548866743990e-03 0.0000000000000000e+00
25 -1.1803090854336932e-03 -1.2048936081693338e-02 0.0000000000000000e+00
26 -5.8283780766035425e-03 1.8606466719789713e-02 0.0000000000000000e+00
27 -3.4413023624775108e-02 1.1722983658045019e-02 0.0000000000000000e+00
28 1.3730981057678857e-03 -2.8133456272857117e-02 0.0000000000000000e+00
29 6.1332022813686432e-04 2.8364442711787136e-02 0.0000000000000000e+00
30 1.0299982003455842e-02 2.5206198306810704e-02 0.0000000000000000e+00
31 -3.0435251264657147e-03 6.8192325765742056e-03 0.0000000000000000e+00
32 1.0307566421287911e-02 -9.8487512899713709e-03 0.0000000000000000e+00
