LAMMPS data file via write_data, version 29 Mar 2019, timestep = 20000000

32 atoms
1 atom types

-1.5000000000000000e+03 1.5000000000000000e+03 xlo xhi
-1.5000000000000000e+03 1.5000000000000000e+03 ylo yhi
-1.5000000000000000e+03 1.5000000000000000e+03 zlo zhi

Masses

1 0.00054858

Pair Coeffs # gauss/cut

1 0.0355436 0 33.6721

Atoms # atomic

1 1 2.4231996484669824e+02 1.2075680656674221e+02 0.0000000000000000e+00 0 0 0
2 1 -2.1044261605854970e+02 1.6428013707797672e+02 0.0000000000000000e+00 0 0 0
3 1 8.0171382723001798e+01 -7.2132771475120691e+01 0.0000000000000000e+00 0 0 0
4 1 -5.3627856533765712e+00 3.1702171977310007e+02 0.0000000000000000e+00 0 0 0
5 1 4.3986059302510824e+01 1.0061155730069487e+02 0.0000000000000000e+00 0 0 0
6 1 -2.2498163082875544e+02 6.0344984582285541e+01 0.0000000000000000e+00 0 0 0
7 1 2.0958146626519198e+02 1.4717308603922245e+01 0.0000000000000000e+00 0 0 0
8 1 -1.2396971066285806e+02 -2.0010189816530183e+02 0.0000000000000000e+00 0 0 0
9 1 -6.2169399761694642e+01 -2.0154409260021376e+02 0.0000000000000000e+00 0 0 0
10 1 2.8000494349230877e+02 -7.2039131075879922e+01 0.0000000000000000e+00 0 0 0
11 1 1.7042445266482733e+02 1.0240182947764767e+02 0.0000000000000000e+00 0 0 0
12 1 -7.8877904754958079e+00 -7.8034916765171722e+00 0.0000000000000000e+00 0 0 0
13 1 -2.2873646397235018e+02 -7.6887862506793397e+01 0.0000000000000000e+00 0 0 0
14 1 2.4459659959456482e+02 2.0240634001114422e+01 0.0000000000000000e+00 0 0 0
15 1 -8.7700450334240116e+01 -3.8387240163249750e+01 0.0000000000000000e+00 0 0 0
16 1 -8.3312323485528609e+01 -7.1837590491890637e+01 0.0000000000000000e+00 0 0 0
17 1 -3.4276316360486851e+02 -1.3323281839335084e+02 0.0000000000000000e+00 0 0 0
18 1 1.3861534287131752e+02 -1.8977565126417991e+02 0.0000000000000000e+00 0 0 0
19 1 4.7943916729910335e+01 1.8810427909551032e+02 0.0000000000000000e+00 0 0 0
20 1 8.3048096119450861e+01 3.6125047274517478e+01 0.0000000000000000e+00 0 0 0
21 1 1.8149837494436855e+02 -1.5352099768871125e+02 0.0000000000000000e+00 0 0 0
22 1 1.3542005078592925e+02 -5.1472781489340996e+01 0.0000000000000000e+00 0 0 0
23 1 -6.0991125382042036e+01 1.1141077320406454e+02 0.0000000000000000e+00 0 0 0
24 1 2.3162745903069413e+02 -8.0216582940242219e+01 0.0000000000000000e+00 0 0 0
25 1 1.4084809395031307e+01 -7.2678716231698601e+01 0.0000000000000000e+00 0 0 0
26 1 1.3112871199970211e+01 1.3806156530560060e+02 0.0000000000000000e+00 0 0 0
27 1 -9.1767837978553004e+01 6.6008643708333622e+01 0.0000000000000000e+00 0 0 0
28 1 1.2513198266702933e+02 -5.1341599299939276e+01 0.0000000000000000e+00 0 0 0
29 1 -1.0220382083893224e+02 -1.1868014146172166e+02 0.0000000000000000e+00 0 0 0
30 1 -1.6745379571321612e+02 -2.3700419982783146e+02 0.0000000000000000e+00 0 0 0
31 1 7.0072043069912127e+01 -1.9828373214523668e+02 0.0000000000000000e+00 0 0 0
32 1 -5.2443042044832765e+01 1.5480038080252120e+02 0.0000000000000000e+00 0 0 0

Velocities

1 2.5862348813211304e-02 3.5933015179691621e-02 0.0000000000000000e+00
2 -1.5540891557182071e-02 7.8068012130700689e-03 0.0000000000000000e+00
3 -1.5173673863342209e-02 1.9796908588059683e-02 0.0000000000000000e+00
4 -7.7157261573972385e-03 -1.4117543750343431e-02 0.0000000000000000e+00
5 -2.2846250541865103e-02 1.2093434544403878e-02 0.0000000000000000e+00
6 -6.4561242900640914e-03 -3.7006243203849667e-02 0.0000000000000000e+00
7 6.7294652039798526e-03 -3.0223347328749133e-03 0.0000000000000000e+00
8 1.9982040039052514e-02 6.5692044701479270e-03 0.0000000000000000e+00
9 -9.0149850118077940e-03 -1.4015549716787437e-02 0.0000000000000000e+00
10 1.6399510388589944e-02 3.5654391798092106e-03 0.0000000000000000e+00
11 -2.5923111701150640e-02 -1.6800756231237057e-02 0.0000000000000000e+00
12 4.1308720788353397e-02 -8.3952834787210644e-03 0.0000000000000000e+00
13 -8.3355795826312983e-03 -8.0752732177199007e-04 0.0000000000000000e+00
14 -3.0597471514175665e-02 -2.9799791534706795e-03 0.0000000000000000e+00
15 1.2389785432862805e-03 1.5076027885637142e-02 0.0000000000000000e+00
16 -2.5866837700061429e-02 -1.8837121185088835e-02 0.0000000000000000e+00
17 9.3328378956159183e-03 -1.4590587214682276e-02 0.0000000000000000e+00
18 -7.9846454651427822e-03 -3.0083644857810298e-02 0.0000000000000000e+00
19 -3.6559555089924339e-02 1.5168001137779776e-02 0.0000000000000000e+00
20 1.1959910801061438e-02 -1.0483660635519034e-02 0.0000000000000000e+00
21 -1.6180505555121684e-03 -1.8209320678220890e-02 0.0000000000000000e+00
22 5.5820211323658860e-03 1.8699864281525449e-02 0.0000000000000000e+00
23 1.2146057919052791e-02 -7.4025337762655789e-03 0.0000000000000000e+00
24 1.4934068258315414e-02 -1.7845124827061576e-02 0.0000000000000000e+00
25 -1.2252066825525480e-02 -8.3780826714276793e-03 0.0000000000000000e+00
26 1.0932629436445082e-02 6.8767994008094122e-04 0.0000000000000000e+00
27 -7.0012576117594698e-03 -2.2960815353294226e-02 0.0000000000000000e+00
28 1.0035379207619963e-02 4.8735163791713623e-03 0.0000000000000000e+00
29 2.4486988917038215e-03 -1.4147007931908468e-02 0.0000000000000000e+00
30 -1.8389007412639637e-02 8.5664207342873080e-03 0.0000000000000000e+00
31 -2.0962980501539111e-02 -2.0076058883182389e-02 0.0000000000000000e+00
32 -1.5791517895315191e-02 -1.4495153885573304e-02 0.0000000000000000e+00
