LAMMPS data file via write_data, version 29 Mar 2019, timestep = 20000000

32 atoms
1 atom types

-1.5000000000000000e+03 1.5000000000000000e+03 xlo xhi
-1.5000000000000000e+03 1.5000000000000000e+03 ylo yhi
-1.5000000000000000e+03 1.5000000000000000e+03 zlo zhi

Masses

1 0.00054858

Pair Coeffs # gauss/cut

1 0.0118479 0 33.6721

Atoms # atomic

1 1 4.2785821220847367e+01 5.2459430243574609e+01 0.0000000000000000e+00 0 0 0
2 1 4.6271891348779349e+01 -3.2797710300064878e+01 0.0000000000000000e+00 0 0 0
3 1 8.3996260400881496e+01 1.2295977293760383e+00 0.0000000000000000e+00 0 0 0
4 1 2.7112047632520181e+01 -1.1882648043146071e+01 0.0000000000000000e+00 0 0 0
5 1 -4.4109983790967284e+00 -1.4275437687711380e+02 0.0000000000000000e+00 0 0 0
6 1 -1.4627840301915407e+02 -5.6985961339043840e+01 0.0000000000000000e+00 0 0 0
7 1 -4.0006746958516615e+01 2.6608001644133960e+01 0.0000000000000000e+00 0 0 0
8 1 7.1473879425630031e+01 -8.1746979066851424e+01 0.0000000000000000e+00 0 0 0
9 1 -7.0388490143213019e+01 -1.6734631653469043e+02 0.0000000000000000e+00 0 0 0
10 1 -1.2481213055703327e+02 1.0925710554909314e+02 0.0000000000000000e+00 0 0 0
11 1 1.1368744668491659e+02 3.6257775540180376e+01 0.0000000000000000e+00 0 0 0
12 1 -5.7857555960040878e+00 -5.0845144091609150e+01 0.0000000000000000e+00 0 0 0
13 1 1.4841230216837593e+02 -6.4446657967472888e+01 0.0000000000000000e+00 0 0 0
14 1 -1.2296551320768627e+02 -3.6413603339802951e+00 0.0000000000000000e+00 0 0 0
15 1 -1.6510705052687342e+02 -4.2626428690676228e+01 0.0000000000000000e+00 0 0 0
16 1 3.3844817507248145e+01 -1.6285782435309554e+02 0.0000000000000000e+00 0 0 0
17 1 2.0852158694251227e+02 6.9174941004227037e+01 0.0000000000000000e+00 0 0 0
18 1 7.7293044607768749e+01 3.0383321470065521e+01 0.0000000000000000e+00 0 0 0
19 1 2.4545039254802230e+01 1.4804461500511923e+02 0.0000000000000000e+00 0 0 0
20 1 -1.4971282237683488e+02 3.4489314647292275e+01 0.0000000000000000e+00 0 0 0
21 1 -5.8671833000374733e+01 1.1969009234692571e+02 0.0000000000000000e+00 0 0 0
22 1 5.1062392655281904e+01 -5.4383655050928205e+01 0.0000000000000000e+00 0 0 0
23 1 -1.2890762745067096e+02 6.6928624581156811e+01 0.0000000000000000e+00 0 0 0
24 1 -8.5454293086517552e+01 -9.3520343787977808e+01 0.0000000000000000e+00 0 0 0
25 1 5.4042503297200014e+01 1.2000336494856023e+02 0.0000000000000000e+00 0 0 0
26 1 3.6178937684001028e+01 -6.6036852179976009e+01 0.0000000000000000e+00 0 0 0
27 1 -3.2604363737058570e+01 -2.5962889330496250e+01 0.0000000000000000e+00 0 0 0
28 1 -2.0532313847003550e+01 -9.2025249483820147e+01 0.0000000000000000e+00 0 0 0
29 1 8.2662063703891320e+01 7.7781804258817161e+01 0.0000000000000000e+00 0 0 0
30 1 9.8381501003258634e+01 -1.3735089592328666e+01 0.0000000000000000e+00 0 0 0
31 1 1.7828180262550501e+02 -1.7962651659602514e+02 0.0000000000000000e+00 0 0 0
32 1 -1.1898932750637250e+02 1.1505235829944804e+02 0.0000000000000000e+00 0 0 0

Velocities

1 8.9438706022306858e-02 4.5671060906051351e-02 0.0000000000000000e+00
2 6.7507947216054673e-02 1.8234510076461322e-03 0.0000000000000000e+00
3 -8.1572898569742772e-02 -1.0839231827129066e-01 0.0000000000000000e+00
4 -1.2657738559935731e-02 4.4191616723815344e-02 0.0000000000000000e+00
5 -1.4392573763301594e-02 2.0757713124816356e-02 0.0000000000000000e+00
6 1.9745963470283102e-02 -8.2719766323231123e-02 0.0000000000000000e+00
7 1.0414035470680175e-01 -7.2970093194822144e-02 0.0000000000000000e+00
8 4.4155798222907713e-03 -3.0347686322750245e-02 0.0000000000000000e+00
9 7.1368630024980576e-02 7.2458166938868755e-03 0.0000000000000000e+00
10 -4.1366120173573174e-03 3.7861008180192411e-02 0.0000000000000000e+00
11 -1.4543018672192772e-02 4.2742158063344407e-03 0.0000000000000000e+00
12 -2.1344909984016620e-02 3.6679379699946814e-02 0.0000000000000000e+00
13 -1.3523938105539857e-02 -1.1385689602379720e-02 0.0000000000000000e+00
14 -5.4650078172677162e-02 1.0253787242230257e-01 0.0000000000000000e+00
15 -1.2992841928360243e-02 -1.2822117217327597e-01 0.0000000000000000e+00
16 1.4913628105911209e-02 6.1148288807181553e-02 0.0000000000000000e+00
17 -4.3323075331501544e-02 2.1226282126736509e-02 0.0000000000000000e+00
18 1.6045459642732979e-02 4.9194864049835522e-02 0.0000000000000000e+00
19 4.6660207413769396e-02 -1.8936947506048834e-02 0.0000000000000000e+00
20 8.7900664485483740e-02 3.0996516084284321e-02 0.0000000000000000e+00
21 -5.8158241340813523e-02 -8.8479080624279852e-02 0.0000000000000000e+00
22 -1.3946306659280030e-02 1.2279379888566642e-01 0.0000000000000000e+00
23 3.2972663355592229e-02 -4.4106497587717224e-02 0.0000000000000000e+00
24 -5.9683145709633595e-02 5.1491654777228002e-02 0.0000000000000000e+00
25 -4.0772097851914886e-02 3.0594221661866865e-02 0.0000000000000000e+00
26 -3.8248797094970820e-03 -3.7711375450098680e-04 0.0000000000000000e+00
27 7.1369520889949703e-02 1.1647198207391218e-01 0.0000000000000000e+00
28 1.6874494928274836e-03 -7.8258860580039877e-02 0.0000000000000000e+00
29 -3.4782270374664345e-02 -1.0145493201586472e-02 0.0000000000000000e+00
30 1.7900305066603568e-02 7.6862466906925705e-02 0.0000000000000000e+00
31 9.7691152427510468e-03 -2.3037390348047908e-02 0.0000000000000000e+00
32 -6.3577144211401107e-02 3.2319532628736103e-02 0.0000000000000000e+00
