LAMMPS data file via write_data, version 29 Mar 2019, timestep = 20000000

32 atoms
1 atom types

-1.5000000000000000e+03 1.5000000000000000e+03 xlo xhi
-1.5000000000000000e+03 1.5000000000000000e+03 ylo yhi
-1.5000000000000000e+03 1.5000000000000000e+03 zlo zhi

Masses

1 0.00054858

Pair Coeffs # gauss/cut

1 0.0118479 0 33.6721

Atoms # atomic

1 1 2.3193809671746234e+01 1.3347397738190946e+02 0.0000000000000000e+00 0 0 0
2 1 1.2311876947382681e+01 1.5476224971627483e+01 0.0000000000000000e+00 0 0 0
3 1 1.2513169685626562e+02 -1.2740370115410526e+01 0.0000000000000000e+00 0 0 0
4 1 6.1338756789067425e+01 -7.2215615862622670e+01 0.0000000000000000e+00 0 0 0
5 1 -8.3286163175453581e+01 -1.5584705959049339e+02 0.0000000000000000e+00 0 0 0
6 1 -2.1077973188212340e+02 -3.2377840859056143e+01 0.0000000000000000e+00 0 0 0
7 1 6.7351431574737475e+01 -1.4266315858662276e+02 0.0000000000000000e+00 0 0 0
8 1 9.6113443703929676e+01 1.4350941926535370e+01 0.0000000000000000e+00 0 0 0
9 1 -1.1521754646668411e+01 1.3650967562013409e+02 0.0000000000000000e+00 0 0 0
10 1 -6.3781720112714751e+01 4.6188805561264921e+01 0.0000000000000000e+00 0 0 0
11 1 -8.6092676772680889e+01 -5.5367263992149930e+01 0.0000000000000000e+00 0 0 0
12 1 1.4801563535676712e+02 -5.7910383690848555e+01 0.0000000000000000e+00 0 0 0
13 1 -1.5452874445607608e+02 -1.2164052274093183e+02 0.0000000000000000e+00 0 0 0
14 1 -9.8115108678254984e+01 1.8225736995336874e+01 0.0000000000000000e+00 0 0 0
15 1 1.7229446604113633e+01 -1.5927491560773618e+02 0.0000000000000000e+00 0 0 0
16 1 1.5160634677861248e+02 1.2754972325283730e+02 0.0000000000000000e+00 0 0 0
17 1 2.0353391050706949e+02 -2.8197760742876188e+00 0.0000000000000000e+00 0 0 0
18 1 5.5433502771432380e+01 1.2788071362440920e+02 0.0000000000000000e+00 0 0 0
19 1 -7.2082025005186992e+01 1.9172272007118590e+01 0.0000000000000000e+00 0 0 0
20 1 -5.1012785616051595e+01 1.1983076720914309e+02 0.0000000000000000e+00 0 0 0
21 1 -6.2071234907775207e+01 -8.5703290569166811e+01 0.0000000000000000e+00 0 0 0
22 1 -1.4222000206034042e+02 1.9235857839376831e+02 0.0000000000000000e+00 0 0 0
23 1 -1.4020245977408783e+02 6.5317539423978886e+01 0.0000000000000000e+00 0 0 0
24 1 1.0387887155184151e+02 1.0591464723002888e+02 0.0000000000000000e+00 0 0 0
25 1 4.3463276627604479e+01 3.5708776292490958e+00 0.0000000000000000e+00 0 0 0
26 1 -7.8512577301086424e+01 -5.2271518338329081e+01 0.0000000000000000e+00 0 0 0
27 1 1.3310702906242722e+02 6.2130753348692423e+01 0.0000000000000000e+00 0 0 0
28 1 7.0594872229771454e+01 1.7866669451603496e+01 0.0000000000000000e+00 0 0 0
29 1 1.3925954826936240e+02 -9.8354276796410304e+01 0.0000000000000000e+00 0 0 0
30 1 1.8535992191353361e+02 1.4767834370784041e+00 0.0000000000000000e+00 0 0 0
31 1 2.8208125864230183e+01 1.4637370503719205e+02 0.0000000000000000e+00 0 0 0
32 1 3.8083102227866803e+01 -5.6673499834863065e+01 0.0000000000000000e+00 0 0 0

Velocities

1 -2.1084298121763542e-03 3.5212568469501083e-02 0.0000000000000000e+00
2 5.5404598852025052e-03 2.1711769818721648e-02 0.0000000000000000e+00
3 2.7469142175392709e-02 1.6813846065065183e-02 0.0000000000000000e+00
4 -1.4908374606531428e-02 -6.9361084899229137e-03 0.0000000000000000e+00
5 -1.4994143956285339e-02 1.2373350362958531e-02 0.0000000000000000e+00
6 2.2714171657825251e-02 7.8588533319186530e-03 0.0000000000000000e+00
7 -5.7833566185927464e-03 -2.1731942212982903e-02 0.0000000000000000e+00
8 -8.5843981428586139e-03 -4.2640012797062982e-05 0.0000000000000000e+00
9 -5.7746130375270167e-03 2.2462964719752815e-02 0.0000000000000000e+00
10 3.2294392700618117e-02 -1.5615021705140959e-02 0.0000000000000000e+00
11 1.9143509835557185e-02 1.3150657253113321e-03 0.0000000000000000e+00
12 -1.8443775314301136e-03 7.7964686008324194e-03 0.0000000000000000e+00
13 7.7928937691951828e-03 2.5276587430259272e-02 0.0000000000000000e+00
14 3.1788714930701019e-02 -1.3646669176541042e-02 0.0000000000000000e+00
15 8.7983630091061325e-03 -9.7388809079713475e-03 0.0000000000000000e+00
16 -1.7537648877939627e-02 -1.3099265842731063e-02 0.0000000000000000e+00
17 1.0300672788294241e-02 -1.7058928799402722e-03 0.0000000000000000e+00
18 -1.8979556953566123e-02 -1.9644106242319465e-02 0.0000000000000000e+00
19 -1.9977863664804460e-02 1.4167233047532498e-02 0.0000000000000000e+00
20 2.6164449115298606e-03 2.6199019246905070e-02 0.0000000000000000e+00
21 -3.5958623019986390e-02 -2.8156802015874432e-02 0.0000000000000000e+00
22 1.8541862061354865e-02 9.0342855374725452e-03 0.0000000000000000e+00
23 3.7455614327222470e-03 1.1872433601376070e-02 0.0000000000000000e+00
24 2.2893509832904554e-02 -7.7507925894292565e-03 0.0000000000000000e+00
25 1.2120762642082523e-02 -9.2988119160258235e-03 0.0000000000000000e+00
26 -3.0258111026389978e-03 2.1075684087926240e-02 0.0000000000000000e+00
27 1.2492633336090549e-02 6.6381043277587504e-03 0.0000000000000000e+00
28 -3.1655484504836934e-02 1.0740980057462353e-02 0.0000000000000000e+00
29 2.2003867796809847e-02 -1.3089392136783735e-03 0.0000000000000000e+00
30 -2.9608013592599791e-02 -2.4875545691224448e-02 0.0000000000000000e+00
31 1.3206088924437420e-03 -6.5738229602917324e-03 0.0000000000000000e+00
32 -1.0614206372380301e-02 3.5066216189830672e-03 0.0000000000000000e+00
