LAMMPS data file via write_data, version 29 Mar 2019, timestep = 20000000

32 atoms
1 atom types

-1.5000000000000000e+03 1.5000000000000000e+03 xlo xhi
-1.5000000000000000e+03 1.5000000000000000e+03 ylo yhi
-1.5000000000000000e+03 1.5000000000000000e+03 zlo zhi

Masses

1 0.00054858

Pair Coeffs # gauss/cut

1 0.0118479 0 33.6721

Atoms # atomic

1 1 -6.7396401770857117e-01 1.0119893846127225e+02 0.0000000000000000e+00 0 0 0
2 1 -3.2452700222367731e+01 1.7487640556411790e+01 0.0000000000000000e+00 0 0 0
3 1 1.1717685917537085e+02 5.4493345437665134e+01 0.0000000000000000e+00 0 0 0
4 1 8.0804003795666034e+01 -1.0767138592187878e+02 0.0000000000000000e+00 0 0 0
5 1 -5.6847400452784065e+01 -1.5533508072152080e+02 0.0000000000000000e+00 0 0 0
6 1 -2.1870637129090596e+02 -6.3304956301295668e+01 0.0000000000000000e+00 0 0 0
7 1 4.3853498400779344e+01 -7.6283363741282542e+01 0.0000000000000000e+00 0 0 0
8 1 6.4328244062165297e+01 3.6472516390148300e+01 0.0000000000000000e+00 0 0 0
9 1 -2.2575019215808509e-01 1.5649355081725363e+02 0.0000000000000000e+00 0 0 0
10 1 -1.0995858252008844e+02 5.4819720392387744e+01 0.0000000000000000e+00 0 0 0
11 1 -5.5710021440727310e+01 -6.0757528978137834e+01 0.0000000000000000e+00 0 0 0
12 1 2.0216329786693038e+02 -7.2749943797091930e+01 0.0000000000000000e+00 0 0 0
13 1 -1.4502301791071059e+02 -1.2312270992843442e+02 0.0000000000000000e+00 0 0 0
14 1 -9.4517101893283098e+01 -2.5576876485405858e+01 0.0000000000000000e+00 0 0 0
15 1 7.8664379279607019e+01 -2.2599948463180553e+02 0.0000000000000000e+00 0 0 0
16 1 1.3726874853668704e+02 8.7376534920731956e+01 0.0000000000000000e+00 0 0 0
17 1 1.9275263247110496e+02 -2.8474626427829477e+01 0.0000000000000000e+00 0 0 0
18 1 7.4559799183441598e+01 8.7138319662659995e+01 0.0000000000000000e+00 0 0 0
19 1 -7.1728292733936598e+01 3.2609118677234306e+01 0.0000000000000000e+00 0 0 0
20 1 -1.0575421303357162e+01 1.7189209762797512e+02 0.0000000000000000e+00 0 0 0
21 1 -1.0634721247892944e+02 -9.7955044288590429e+01 0.0000000000000000e+00 0 0 0
22 1 -1.4828027006724483e+02 2.1548094375933729e+02 0.0000000000000000e+00 0 0 0
23 1 -1.0541720670626461e+02 4.4762192170526504e+01 0.0000000000000000e+00 0 0 0
24 1 1.3845424913070042e+02 6.7703627024487488e+01 0.0000000000000000e+00 0 0 0
25 1 6.3827407555649479e+01 -3.0674185259918585e+00 0.0000000000000000e+00 0 0 0
26 1 -4.2354497977045455e+01 -2.8585846149150875e+01 0.0000000000000000e+00 0 0 0
27 1 1.2228054080412004e+02 1.0025391617142550e+02 0.0000000000000000e+00 0 0 0
28 1 -3.6669680358457244e+00 -2.8899240727067379e+01 0.0000000000000000e+00 0 0 0
29 1 1.0602883646043514e+02 -1.3657703700574822e+02 0.0000000000000000e+00 0 0 0
30 1 1.6018388637220340e+02 -3.0673034970442551e+01 0.0000000000000000e+00 0 0 0
31 1 2.0714977318536175e+01 1.2679253800845663e+02 0.0000000000000000e+00 0 0 0
32 1 2.6578221469447566e+01 -3.5462763266656836e+01 0.0000000000000000e+00 0 0 0

Velocities

1 2.5793527581449245e-03 -1.9320819328684641e-02 0.0000000000000000e+00
2 -1.5921540334286357e-02 -4.8660570432322086e-03 0.0000000000000000e+00
3 1.8052246120777689e-03 -7.9135093898357045e-03 0.0000000000000000e+00
4 -1.3693240035460187e-02 7.5055920661636945e-03 0.0000000000000000e+00
5 -9.4160047405700414e-03 -1.2163429611111257e-02 0.0000000000000000e+00
6 -4.7739130041642560e-03 -2.5525103454013100e-03 0.0000000000000000e+00
7 4.6061722216556933e-04 -2.3210841186487037e-02 0.0000000000000000e+00
8 4.2572786779271959e-03 -1.0203108367513133e-02 0.0000000000000000e+00
9 -3.4715149657728234e-02 -4.1127347971522928e-03 0.0000000000000000e+00
10 2.2445661659262067e-02 1.3401049745337594e-02 0.0000000000000000e+00
11 -3.5432104112980034e-02 -1.5799712790731099e-02 0.0000000000000000e+00
12 -1.1863161415894051e-02 -7.7250549686340309e-03 0.0000000000000000e+00
13 -2.7640750832426057e-02 -1.0354700404590499e-03 0.0000000000000000e+00
14 3.1315738367158298e-03 7.5689225233383879e-03 0.0000000000000000e+00
15 -1.4095098592441062e-02 -3.8078558461447275e-02 0.0000000000000000e+00
16 1.2729247144111125e-02 -1.2949910872134347e-04 0.0000000000000000e+00
17 -2.5244651042956145e-02 -1.2844170066909128e-02 0.0000000000000000e+00
18 -4.7027127420141467e-03 -1.0093502202872438e-02 0.0000000000000000e+00
19 -2.5623580076205504e-02 2.2652483469714167e-04 0.0000000000000000e+00
20 9.7509546840760988e-03 7.5040347355885976e-03 0.0000000000000000e+00
21 -6.8591819194511166e-03 -6.1648076081752485e-03 0.0000000000000000e+00
22 -6.7750085062345438e-03 8.8561864417439108e-03 0.0000000000000000e+00
23 -2.0520963509006760e-02 8.2097823206678695e-03 0.0000000000000000e+00
24 5.8324201524698480e-03 -7.7728409422718409e-03 0.0000000000000000e+00
25 -2.1309681182138374e-02 -9.8386473623219509e-03 0.0000000000000000e+00
26 1.5928465925129028e-02 1.0151836590648942e-02 0.0000000000000000e+00
27 -3.2973116762496431e-02 -1.3261302831483692e-02 0.0000000000000000e+00
28 1.8985933234725243e-02 -1.8167902181130013e-02 0.0000000000000000e+00
29 -1.5356385308540697e-02 8.5379550347218173e-03 0.0000000000000000e+00
30 -7.3881544040555972e-03 7.1009915454015903e-03 0.0000000000000000e+00
31 -1.7578462986684461e-03 -1.1658520046428311e-02 0.0000000000000000e+00
32 2.1831487713551864e-02 1.2033052637827083e-02 0.0000000000000000e+00
