LAMMPS data file via write_data, version 29 Mar 2019, timestep = 20000000

32 atoms
1 atom types

-1.5000000000000000e+03 1.5000000000000000e+03 xlo xhi
-1.5000000000000000e+03 1.5000000000000000e+03 ylo yhi
-1.5000000000000000e+03 1.5000000000000000e+03 zlo zhi

Masses

1 0.00054858

Pair Coeffs # gauss/cut

1 0.0355436 0 33.6721

Atoms # atomic

1 1 2.6257319738572744e+02 -2.2372532069283164e+01 0.0000000000000000e+00 0 0 0
2 1 -1.9239690725876815e+02 1.2984518922876629e+02 0.0000000000000000e+00 0 0 0
3 1 7.7482525823672574e+01 6.2226642618410906e+01 0.0000000000000000e+00 0 0 0
4 1 -1.6310919324105197e+02 1.3429256617624478e+02 0.0000000000000000e+00 0 0 0
5 1 -7.6641982053416857e+00 1.9561011168654079e+02 0.0000000000000000e+00 0 0 0
6 1 -2.3280171434381617e+02 2.1692091520176081e+01 0.0000000000000000e+00 0 0 0
7 1 1.6373483313747732e+02 1.9379228083689338e+02 0.0000000000000000e+00 0 0 0
8 1 9.0348158485333858e+00 -2.0020454423212468e+02 0.0000000000000000e+00 0 0 0
9 1 -1.6078274133394874e+02 1.2332456121815863e+01 0.0000000000000000e+00 0 0 0
10 1 2.9035373171094443e+02 -1.7812277754544408e+02 0.0000000000000000e+00 0 0 0
11 1 1.7130594128404726e+02 -9.9508547642347667e-01 0.0000000000000000e+00 0 0 0
12 1 7.2246382075216459e+01 -8.7980245113725516e+01 0.0000000000000000e+00 0 0 0
13 1 -2.2538166379107301e+02 -7.9590603524152328e+01 0.0000000000000000e+00 0 0 0
14 1 1.6017004775395276e+02 7.6126420496106242e+00 0.0000000000000000e+00 0 0 0
15 1 1.1442884902156035e+02 1.0449513759842451e+02 0.0000000000000000e+00 0 0 0
16 1 -2.1732989843602627e+02 -6.5330761602729925e-01 0.0000000000000000e+00 0 0 0
17 1 -1.6673343255345637e+02 -1.7412644795807500e+02 0.0000000000000000e+00 0 0 0
18 1 1.2912367275382215e+02 -1.2084967899504156e+02 0.0000000000000000e+00 0 0 0
19 1 1.2642371822580486e+02 1.6967539356596691e+02 0.0000000000000000e+00 0 0 0
20 1 -1.1474997839762348e+02 -3.7263675900373890e+01 0.0000000000000000e+00 0 0 0
21 1 1.8291886760023735e+02 -7.6557414762503853e+01 0.0000000000000000e+00 0 0 0
22 1 -5.4084893877153341e+01 7.9666334650526139e+01 0.0000000000000000e+00 0 0 0
23 1 1.7736343918117297e+00 1.0600642727169661e+02 0.0000000000000000e+00 0 0 0
24 1 4.1022540513458701e+01 -6.3106499774917800e+01 0.0000000000000000e+00 0 0 0
25 1 -1.4375248206669399e+01 -9.5631909438436665e+01 0.0000000000000000e+00 0 0 0
26 1 2.1250370636640930e+01 1.0585346994748878e+02 0.0000000000000000e+00 0 0 0
27 1 -3.2719679755434726e+01 3.8259629310295274e+01 0.0000000000000000e+00 0 0 0
28 1 6.6162751128595431e+01 6.3279530251381493e+00 0.0000000000000000e+00 0 0 0
29 1 -1.6511633546500181e+02 -8.6256557503728942e+01 0.0000000000000000e+00 0 0 0
30 1 -5.8370536793526895e+01 -2.8709346189564474e+02 0.0000000000000000e+00 0 0 0
31 1 -9.1496543061612400e+01 -2.0239862150860645e+02 0.0000000000000000e+00 0 0 0
32 1 -1.3343173212657177e+01 -8.3536424998646330e-01 0.0000000000000000e+00 0 0 0

Velocities

1 1.9360504866200064e-02 7.9079324486729663e-03 0.0000000000000000e+00
2 3.3838657182862643e-02 4.9519095031911618e-02 0.0000000000000000e+00
3 -3.5089773914621925e-02 4.6180510356708870e-03 0.0000000000000000e+00
4 -4.2381133907093846e-02 9.1854761027767573e-03 0.0000000000000000e+00
5 -2.1857282184204376e-02 1.7055180491245912e-02 0.0000000000000000e+00
6 6.3412348248893859e-06 6.9672811941697537e-03 0.0000000000000000e+00
7 -1.1572663877910510e-02 -2.4422200978708272e-02 0.0000000000000000e+00
8 -2.2077590413032779e-02 1.0133790271727269e-02 0.0000000000000000e+00
9 -1.6416787046132687e-02 -2.5336149274708165e-02 0.0000000000000000e+00
10 1.2393665498612757e-02 9.0953879173756360e-05 0.0000000000000000e+00
11 7.1051498689769709e-03 -1.3194281526181826e-02 0.0000000000000000e+00
12 6.4307126936787046e-03 -4.8766091717233799e-03 0.0000000000000000e+00
13 1.5571902812385982e-02 -1.9837125683476241e-02 0.0000000000000000e+00
14 -7.4132590874093577e-03 1.7768096429548692e-02 0.0000000000000000e+00
15 2.8882856382485063e-02 -4.5463335435701760e-02 0.0000000000000000e+00
16 -5.3056634731997229e-03 1.7684584608682330e-02 0.0000000000000000e+00
17 6.1010758300439902e-03 2.0225082308923661e-03 0.0000000000000000e+00
18 1.4777015852109760e-02 1.1252502181491078e-02 0.0000000000000000e+00
19 -1.2934020519816946e-02 -3.9289734660214702e-02 0.0000000000000000e+00
20 1.6827564155472773e-02 -3.0733803397975823e-02 0.0000000000000000e+00
21 -1.0830693223580837e-02 1.0532033991720098e-02 0.0000000000000000e+00
22 2.6390051013574958e-02 4.6025198723741141e-03 0.0000000000000000e+00
23 -2.4926856346166777e-02 -1.3865857809273361e-02 0.0000000000000000e+00
24 2.2868363689495341e-03 -9.2676203002988664e-03 0.0000000000000000e+00
25 -6.4899198113119855e-04 1.0093120732332151e-03 0.0000000000000000e+00
26 3.2180313224775332e-02 1.1435088875547506e-02 0.0000000000000000e+00
27 1.9640698686719485e-02 -3.9523100239428647e-03 0.0000000000000000e+00
28 -1.0295396611051546e-02 -2.0763463953145173e-02 0.0000000000000000e+00
29 1.8546987682077992e-02 1.8057934219367026e-02 0.0000000000000000e+00
30 1.5128176676829024e-02 4.4736446662749882e-02 0.0000000000000000e+00
31 -4.6698805499819944e-03 -4.9517124866167205e-03 0.0000000000000000e+00
32 -6.5275697394260746e-03 -1.3972135922084357e-02 0.0000000000000000e+00
