LAMMPS data file via write_data, version 29 Mar 2019, timestep = 20000000

32 atoms
1 atom types

-1.5000000000000000e+03 1.5000000000000000e+03 xlo xhi
-1.5000000000000000e+03 1.5000000000000000e+03 ylo yhi
-1.5000000000000000e+03 1.5000000000000000e+03 zlo zhi

Masses

1 0.00054858

Pair Coeffs # gauss/cut

1 0.0355436 0 33.6721

Atoms # atomic

1 1 2.4085931129373520e+02 1.2358533851807580e+02 0.0000000000000000e+00 0 0 0
2 1 -6.8540362576308937e+01 1.4953113247379645e+02 0.0000000000000000e+00 0 0 0
3 1 5.5771823379006520e+01 3.0443432683461292e+01 0.0000000000000000e+00 0 0 0
4 1 6.7147842678826990e+00 2.4762054543652496e+01 0.0000000000000000e+00 0 0 0
5 1 6.3422352222390181e+01 1.6370602063177196e+02 0.0000000000000000e+00 0 0 0
6 1 -1.1335851900976910e+02 -1.8465523132742625e+01 0.0000000000000000e+00 0 0 0
7 1 -1.5629474423025482e+02 1.7133896834147112e+02 0.0000000000000000e+00 0 0 0
8 1 -2.6960858846096620e+01 -1.0264505692569631e+02 0.0000000000000000e+00 0 0 0
9 1 -2.0919401117538726e+02 -1.4947730161112617e+02 0.0000000000000000e+00 0 0 0
10 1 1.0611427545233421e+02 -1.6931241191310289e+02 0.0000000000000000e+00 0 0 0
11 1 9.0262093859915780e+01 -1.3092237137110888e+02 0.0000000000000000e+00 0 0 0
12 1 5.0719801497483978e+01 -2.9910849033091749e+00 0.0000000000000000e+00 0 0 0
13 1 -1.9616852500040301e+02 -3.6913905251033555e+01 0.0000000000000000e+00 0 0 0
14 1 1.1886399476430715e+02 1.1423502320784117e+02 0.0000000000000000e+00 0 0 0
15 1 1.7939830386811454e+02 -6.6060145811100099e+00 0.0000000000000000e+00 0 0 0
16 1 -5.0867757843785554e+01 8.9261458795324728e+01 0.0000000000000000e+00 0 0 0
17 1 -4.7241585427907076e+01 -1.9717287993978462e+02 0.0000000000000000e+00 0 0 0
18 1 6.9353354544559508e+01 -6.2249735741940285e+01 0.0000000000000000e+00 0 0 0
19 1 1.9567101214333437e+02 3.6959625935264526e+00 0.0000000000000000e+00 0 0 0
20 1 7.4496243264928779e+01 1.7623391143644210e+02 0.0000000000000000e+00 0 0 0
21 1 1.1156116318947970e+02 -1.0268468766870491e+02 0.0000000000000000e+00 0 0 0
22 1 -1.2093944539386676e+02 1.9611330344033009e+00 0.0000000000000000e+00 0 0 0
23 1 -1.4170582095018170e+02 5.4002072649704296e+01 0.0000000000000000e+00 0 0 0
24 1 1.6556734534060993e+01 8.1658169196220328e+01 0.0000000000000000e+00 0 0 0
25 1 1.0835633641806773e+01 2.9163253664816132e+01 0.0000000000000000e+00 0 0 0
26 1 -1.3552680805544194e+01 9.9432414773769565e+01 0.0000000000000000e+00 0 0 0
27 1 -1.9670201021491420e+02 7.8974155207987415e+00 0.0000000000000000e+00 0 0 0
28 1 1.2526716828319746e+02 1.4832245846656835e+02 0.0000000000000000e+00 0 0 0
29 1 -8.0280572646188162e+01 -6.3923943240899703e+01 0.0000000000000000e+00 0 0 0
30 1 1.7104345378451384e+01 -9.8567082778551153e+01 0.0000000000000000e+00 0 0 0
31 1 -1.1432084727753238e+02 -1.4289015963150680e+02 0.0000000000000000e+00 0 0 0
32 1 1.4385973532237384e+02 -7.9907419840030997e+01 0.0000000000000000e+00 0 0 0

Velocities

1 3.8352325186752328e-02 2.8686581117448606e-02 0.0000000000000000e+00
2 -1.7717546230807863e-02 -3.5088036386393885e-02 0.0000000000000000e+00
3 -2.1806795380776511e-02 -4.4057446158637596e-02 0.0000000000000000e+00
4 6.3034284119862496e-03 -2.9673096381347061e-02 0.0000000000000000e+00
5 1.3127137797289934e-02 -4.1264595822151438e-02 0.0000000000000000e+00
6 -2.8414390736853833e-02 -3.2263133410210436e-03 0.0000000000000000e+00
7 7.9483620729078224e-04 -4.6582214995347987e-03 0.0000000000000000e+00
8 5.0520369680505314e-03 -1.2828550842992748e-02 0.0000000000000000e+00
9 1.0596336665111046e-02 5.0835763336970263e-02 0.0000000000000000e+00
10 1.3872459813577447e-02 -5.0594738060853871e-02 0.0000000000000000e+00
11 -4.1021234926522439e-02 -1.8235564342419144e-02 0.0000000000000000e+00
12 4.7720019898749187e-03 4.7044946235292526e-02 0.0000000000000000e+00
13 2.5906196101974567e-02 8.5755210768059670e-03 0.0000000000000000e+00
14 2.1074324761154565e-02 -4.0636334801603766e-02 0.0000000000000000e+00
15 -2.9981570397647792e-02 -2.5916101765365834e-03 0.0000000000000000e+00
16 -1.5837670857501169e-02 2.0624280317255338e-02 0.0000000000000000e+00
17 1.0452384396006027e-02 -5.9357184773348830e-02 0.0000000000000000e+00
18 -3.6731187159168871e-02 9.5020292189202382e-03 0.0000000000000000e+00
19 3.0207966607109771e-02 5.9194169598503002e-03 0.0000000000000000e+00
20 -4.5189787227968847e-02 -4.3361967711929615e-03 0.0000000000000000e+00
21 3.4737875695537705e-02 1.2555979478457257e-02 0.0000000000000000e+00
22 2.4244869495012516e-02 -1.0746443826857806e-02 0.0000000000000000e+00
23 -3.7439877778058461e-02 3.1357305535310812e-02 0.0000000000000000e+00
24 -3.6328023906351285e-03 -6.0158234645029457e-03 0.0000000000000000e+00
25 1.0165784709202211e-02 -1.2775025664752611e-02 0.0000000000000000e+00
26 -4.3095372481416955e-02 2.1850340841498431e-03 0.0000000000000000e+00
27 2.2539868159297767e-02 -1.5076990397164872e-02 0.0000000000000000e+00
28 9.6593574308418437e-04 -2.7355081004132903e-03 0.0000000000000000e+00
29 -3.7263346745517151e-02 1.0695703906047410e-02 0.0000000000000000e+00
30 2.9463159436848369e-02 -6.9300249781808237e-02 0.0000000000000000e+00
31 -1.7364198218475922e-02 5.3464510690098041e-02 0.0000000000000000e+00
32 2.1014193345008710e-02 1.9172853310286290e-02 0.0000000000000000e+00
