LAMMPS data file via write_data, version 29 Mar 2019, timestep = 20000000

32 atoms
1 atom types

-1.5000000000000000e+03 1.5000000000000000e+03 xlo xhi
-1.5000000000000000e+03 1.5000000000000000e+03 ylo yhi
-1.5000000000000000e+03 1.5000000000000000e+03 zlo zhi

Masses

1 0.00054858

Pair Coeffs # gauss/cut

1 0.0118479 0 33.6721

Atoms # atomic

1 1 1.5402360275062570e+01 1.8228125132483157e+02 0.0000000000000000e+00 0 0 0
2 1 3.4783576705485387e+01 2.5826682659875853e+01 0.0000000000000000e+00 0 0 0
3 1 9.7494107097921713e+01 -4.0260877900132655e+01 0.0000000000000000e+00 0 0 0
4 1 -5.6779778869752427e+01 -2.8719825065158254e+01 0.0000000000000000e+00 0 0 0
5 1 -7.7108906966602362e+01 -5.0740535989351017e+01 0.0000000000000000e+00 0 0 0
6 1 -5.9159473214925853e+01 -6.7227181082678555e+01 0.0000000000000000e+00 0 0 0
7 1 1.2851018146521653e+02 -8.6746677825155061e+01 0.0000000000000000e+00 0 0 0
8 1 5.4713267120902572e+01 -6.5560526346172978e+01 0.0000000000000000e+00 0 0 0
9 1 2.9159421354550652e+01 8.2828986122552124e+01 0.0000000000000000e+00 0 0 0
10 1 -5.1129977720411468e+01 1.0242265049002248e+02 0.0000000000000000e+00 0 0 0
11 1 -1.2187726458279291e+01 1.4704283595467840e+02 0.0000000000000000e+00 0 0 0
12 1 -9.4868187346148730e+01 -1.1330068431211225e+02 0.0000000000000000e+00 0 0 0
13 1 3.0218910801542457e+01 1.1673636700184577e+01 0.0000000000000000e+00 0 0 0
14 1 4.1165305786636168e+01 -6.5608565806144625e+01 0.0000000000000000e+00 0 0 0
15 1 7.3925157515617627e+01 1.5787873745439125e+00 0.0000000000000000e+00 0 0 0
16 1 1.8891413252035827e+02 1.6202071289019781e+01 0.0000000000000000e+00 0 0 0
17 1 4.7361068379329211e+01 6.6565680111283569e+01 0.0000000000000000e+00 0 0 0
18 1 9.3362658448434274e+01 -1.0184396111886358e+01 0.0000000000000000e+00 0 0 0
19 1 -1.0066295617753221e+02 -3.7010826316725494e+00 0.0000000000000000e+00 0 0 0
20 1 -2.3479301188822726e+02 8.7689050414647447e+00 0.0000000000000000e+00 0 0 0
21 1 5.8665297860116084e+01 -9.5253711793579257e+01 0.0000000000000000e+00 0 0 0
22 1 -8.4201984836945925e+01 1.4707272456904116e+02 0.0000000000000000e+00 0 0 0
23 1 -1.1958706522823144e+02 7.6351441892941068e+01 0.0000000000000000e+00 0 0 0
24 1 4.3190818366834968e+01 6.4904766838637499e+01 0.0000000000000000e+00 0 0 0
25 1 7.2080427909031059e+01 4.4387505990466018e+01 0.0000000000000000e+00 0 0 0
26 1 7.5876052400908875e+01 -8.3581294143977416e+01 0.0000000000000000e+00 0 0 0
27 1 -9.1990123114940960e+00 1.1773378293262569e+02 0.0000000000000000e+00 0 0 0
28 1 1.2764940296561139e+02 6.9842806531132140e+01 0.0000000000000000e+00 0 0 0
29 1 6.8943255429027687e+01 1.3417466700090370e+02 0.0000000000000000e+00 0 0 0
30 1 2.1978271414452496e+02 -1.8167255746038071e+00 0.0000000000000000e+00 0 0 0
31 1 -8.9181345630342257e+00 -3.7572944470630603e+01 0.0000000000000000e+00 0 0 0
32 1 9.2074941205800109e-01 -1.2104693755760492e+02 0.0000000000000000e+00 0 0 0

Velocities

1 3.2714155459910764e-02 -2.5412514731500274e-02 0.0000000000000000e+00
2 7.5907837463026900e-03 -1.9179395337947790e-03 0.0000000000000000e+00
3 1.6462663935891308e-02 -2.1065588897144962e-02 0.0000000000000000e+00
4 6.0896360670461723e-03 -1.1014497844993544e-02 0.0000000000000000e+00
5 1.7753796438958244e-02 4.5889318013317614e-03 0.0000000000000000e+00
6 9.1937352676194854e-03 1.9478166931810151e-02 0.0000000000000000e+00
7 1.4462321372630891e-03 -1.0726595426820390e-02 0.0000000000000000e+00
8 -7.3354155450857999e-03 1.0567438681706766e-02 0.0000000000000000e+00
9 -4.8078931037193809e-02 1.5272527268785693e-02 0.0000000000000000e+00
10 -2.1220958296575957e-03 1.8030793068745446e-03 0.0000000000000000e+00
11 1.5012729277877349e-02 1.3424617246562204e-02 0.0000000000000000e+00
12 -1.7947566488485823e-03 -1.2740720857137618e-02 0.0000000000000000e+00
13 3.2289547766829320e-03 3.5273048055947789e-04 0.0000000000000000e+00
14 7.4285080944022121e-03 3.6432167812409585e-02 0.0000000000000000e+00
15 4.9871686694066318e-03 -1.5194455563972602e-02 0.0000000000000000e+00
16 2.1085916848619025e-02 -2.0341660390743543e-02 0.0000000000000000e+00
17 -1.1887771885958461e-02 -1.7343258244647594e-03 0.0000000000000000e+00
18 -1.4045465775235858e-02 -2.2681379451625183e-02 0.0000000000000000e+00
19 2.3124715888393151e-02 -1.6915479416182540e-02 0.0000000000000000e+00
20 -3.5322656893023871e-02 -3.4913416046056214e-03 0.0000000000000000e+00
21 3.1428380039867719e-02 -3.5162672079032367e-03 0.0000000000000000e+00
22 -2.6421366250602561e-02 -1.2307657213416054e-04 0.0000000000000000e+00
23 -1.2594710472928438e-02 -1.7304852715221045e-02 0.0000000000000000e+00
24 1.2991445896268798e-02 2.2617079979786545e-02 0.0000000000000000e+00
25 -1.0884366513041208e-02 1.1601382223840427e-02 0.0000000000000000e+00
26 -1.7894469928032040e-02 1.9165541125987069e-04 0.0000000000000000e+00
27 -1.7876591658761036e-02 1.0755630130458207e-02 0.0000000000000000e+00
28 -1.9116682607538980e-02 1.7051837110542249e-02 0.0000000000000000e+00
29 -1.7944872700105623e-02 7.2991656531937949e-03 0.0000000000000000e+00
30 2.4754545754329393e-02 7.4216446534844339e-03 0.0000000000000000e+00
31 -1.8082942922898082e-02 -1.3171235510350185e-03 0.0000000000000000e+00
32 2.0272270517495156e-02 4.2897285340607379e-03 0.0000000000000000e+00
