LAMMPS data file via write_data, version 29 Mar 2019, timestep = 20000000

32 atoms
1 atom types

-1.5000000000000000e+03 1.5000000000000000e+03 xlo xhi
-1.5000000000000000e+03 1.5000000000000000e+03 ylo yhi
-1.5000000000000000e+03 1.5000000000000000e+03 zlo zhi

Masses

1 0.00054858

Pair Coeffs # gauss/cut

1 0.0118479 0 33.6721

Atoms # atomic

1 1 -4.9018762887594349e+01 -4.2882432928505168e+01 0.0000000000000000e+00 0 0 0
2 1 6.4053942728230467e+01 2.6834311895223664e+01 0.0000000000000000e+00 0 0 0
3 1 -6.7898374540013634e+01 1.1442147645239315e+01 0.0000000000000000e+00 0 0 0
4 1 -9.8878525352616791e+01 -1.6873488609222557e+02 0.0000000000000000e+00 0 0 0
5 1 -1.5035796608957591e+02 -1.3659124164733265e+02 0.0000000000000000e+00 0 0 0
6 1 -7.0478145151598653e+01 -8.7275102396596935e+00 0.0000000000000000e+00 0 0 0
7 1 1.1168774650131110e+02 -1.3345301743714793e+02 0.0000000000000000e+00 0 0 0
8 1 1.8610133689266717e+00 -1.2235713325072865e+02 0.0000000000000000e+00 0 0 0
9 1 1.9836245213933743e+00 -2.2061214873902455e+02 0.0000000000000000e+00 0 0 0
10 1 -1.0530095741098856e+02 1.0168723286158507e+02 0.0000000000000000e+00 0 0 0
11 1 2.0171457279211697e+02 2.5869793917238393e+01 0.0000000000000000e+00 0 0 0
12 1 -5.9663119043243363e+01 -1.6463668954371673e+02 0.0000000000000000e+00 0 0 0
13 1 -6.7786769256698975e+01 -4.4669479739329141e+01 0.0000000000000000e+00 0 0 0
14 1 -1.7128863886158013e+02 3.3201057196251938e+01 0.0000000000000000e+00 0 0 0
15 1 -4.3574158028396560e+01 -7.6840794580165209e+01 0.0000000000000000e+00 0 0 0
16 1 1.1389514777464551e+02 -1.5218522240259890e+02 0.0000000000000000e+00 0 0 0
17 1 -7.2526004521462355e+01 1.3174763979217343e+02 0.0000000000000000e+00 0 0 0
18 1 6.4467435539422070e+01 7.5203839766472825e+01 0.0000000000000000e+00 0 0 0
19 1 -3.8228373266434744e+01 4.6385167514090249e+01 0.0000000000000000e+00 0 0 0
20 1 -1.5843568093320820e+02 2.4487726414569915e+00 0.0000000000000000e+00 0 0 0
21 1 -1.5002313388457588e+02 -3.1288199668795318e+01 0.0000000000000000e+00 0 0 0
22 1 -1.7930656875480100e+01 7.9561664326172604e+01 0.0000000000000000e+00 0 0 0
23 1 1.2579227648661842e+02 9.4997783305576377e+01 0.0000000000000000e+00 0 0 0
24 1 -6.9986443445219095e+01 8.4929578851038016e+01 0.0000000000000000e+00 0 0 0
25 1 4.5001925691993222e+01 2.1575631383835349e+02 0.0000000000000000e+00 0 0 0
26 1 5.9146017594384780e+01 -1.1738702145572686e+01 0.0000000000000000e+00 0 0 0
27 1 -1.2826827892211827e+02 9.3618509523626770e+01 0.0000000000000000e+00 0 0 0
28 1 8.0808077020654736e+01 -7.5593618512111178e+01 0.0000000000000000e+00 0 0 0
29 1 2.0432253678409836e+02 -1.9476217318968796e+01 0.0000000000000000e+00 0 0 0
30 1 1.2552388771561307e+02 -1.8105192307640255e+01 0.0000000000000000e+00 0 0 0
31 1 1.0971841436177681e+02 -1.9388651675662976e+02 0.0000000000000000e+00 0 0 0
32 1 5.6483466945645745e+01 2.8651683539172598e+01 0.0000000000000000e+00 0 0 0

Velocities

1 -5.1021708406271411e-02 -2.4618988567870991e-02 0.0000000000000000e+00
2 -1.9619171279341589e-02 2.7555206347988588e-02 0.0000000000000000e+00
3 2.8683172442125149e-02 3.0067892708716282e-03 0.0000000000000000e+00
4 2.2467182684002525e-03 4.6122157699166583e-02 0.0000000000000000e+00
5 -7.2087250822856289e-03 -8.5123384211197690e-04 0.0000000000000000e+00
6 3.4162942433359579e-02 -2.7273085485397457e-02 0.0000000000000000e+00
7 -5.8978790815750963e-02 2.2221883413426360e-02 0.0000000000000000e+00
8 -2.7906894922120370e-03 4.2779400181383521e-02 0.0000000000000000e+00
9 2.2981607142818775e-02 1.0182984297816678e-02 0.0000000000000000e+00
10 -1.7910739929927096e-02 2.9383239743345215e-03 0.0000000000000000e+00
11 2.4780495371797117e-02 -9.4764625201168452e-03 0.0000000000000000e+00
12 -4.0558769238782377e-03 -1.1207414781399704e-02 0.0000000000000000e+00
13 -1.3877130350098002e-02 1.3387192572093119e-02 0.0000000000000000e+00
14 5.8841088887776713e-02 9.0652242832107328e-03 0.0000000000000000e+00
15 -3.0979760515174468e-02 1.7715021397073032e-02 0.0000000000000000e+00
16 5.9874177115103403e-03 1.7634664824758863e-02 0.0000000000000000e+00
17 2.0049419254053527e-02 -3.7312252476306533e-02 0.0000000000000000e+00
18 1.8469540511399946e-02 3.6564270275048674e-02 0.0000000000000000e+00
19 -1.5619730732422768e-02 -1.3242123223847287e-03 0.0000000000000000e+00
20 1.0694340040984583e-03 1.8574520462410087e-02 0.0000000000000000e+00
21 -2.1877785022761682e-03 6.9970066598469601e-03 0.0000000000000000e+00
22 -2.2793325606432789e-02 -3.0068329915211061e-02 0.0000000000000000e+00
23 1.3912751936074587e-02 -1.3023714221630522e-02 0.0000000000000000e+00
24 4.4036935585837766e-03 4.6921026668203684e-02 0.0000000000000000e+00
25 -1.3531407358264165e-02 -4.4872330407625879e-02 0.0000000000000000e+00
26 -1.1243436020801760e-03 -1.0672004000135809e-02 0.0000000000000000e+00
27 2.0068501172598955e-02 -3.4973837247053324e-03 0.0000000000000000e+00
28 -1.6123832734558960e-02 3.4272681692800191e-02 0.0000000000000000e+00
29 -1.9341020470579930e-02 -2.0435280033814338e-03 0.0000000000000000e+00
30 3.4297959145288562e-02 -7.7225937409226755e-04 0.0000000000000000e+00
31 -4.2790308897702363e-03 3.8949740284590063e-02 0.0000000000000000e+00
32 2.0474269318924748e-02 -1.8549217939574942e-02 0.0000000000000000e+00
