LAMMPS data file via write_data, version 29 Mar 2019, timestep = 20000000

32 atoms
1 atom types

-1.5000000000000000e+03 1.5000000000000000e+03 xlo xhi
-1.5000000000000000e+03 1.5000000000000000e+03 ylo yhi
-1.5000000000000000e+03 1.5000000000000000e+03 zlo zhi

Masses

1 0.00054858

Pair Coeffs # gauss/cut

1 0.0355436 0 33.6721

Atoms # atomic

1 1 3.1063729002247146e+02 7.8230813996471340e+01 0.0000000000000000e+00 0 0 0
2 1 -1.3138588309756597e+02 1.8992022029304289e+02 0.0000000000000000e+00 0 0 0
3 1 1.5139729633065159e+02 8.8779316319800685e+01 0.0000000000000000e+00 0 0 0
4 1 3.2525781077901868e+01 1.9822357995325124e+01 0.0000000000000000e+00 0 0 0
5 1 1.0956409234315653e+02 9.0643896978425033e+01 0.0000000000000000e+00 0 0 0
6 1 -1.2036049070438052e+01 3.3231323585737464e+01 0.0000000000000000e+00 0 0 0
7 1 -1.1480918673395121e+02 1.1356339298990906e+02 0.0000000000000000e+00 0 0 0
8 1 -8.2233725329404081e+01 -2.1957295878956423e+01 0.0000000000000000e+00 0 0 0
9 1 -1.4498790925617502e+02 -2.0425414534398629e+02 0.0000000000000000e+00 0 0 0
10 1 -8.4214275994272100e+01 -1.3131092867413528e+02 0.0000000000000000e+00 0 0 0
11 1 1.1107243193760753e+02 -6.2770102838009407e+01 0.0000000000000000e+00 0 0 0
12 1 1.6226422116891126e+02 2.7650038314643819e+01 0.0000000000000000e+00 0 0 0
13 1 -1.8149959413685036e+02 5.4132257839596903e+01 0.0000000000000000e+00 0 0 0
14 1 1.7554515014534246e+02 1.2706218978742821e+02 0.0000000000000000e+00 0 0 0
15 1 3.3034372300344302e+02 2.0176993724776146e+01 0.0000000000000000e+00 0 0 0
16 1 -6.1569938030414804e+01 1.4175754282944652e+01 0.0000000000000000e+00 0 0 0
17 1 1.1254825198894589e+02 -4.8417292616785232e+01 0.0000000000000000e+00 0 0 0
18 1 6.3667022295468129e+01 -1.7882171770565779e+02 0.0000000000000000e+00 0 0 0
19 1 1.8169391746231199e+02 -1.3457975277441136e+02 0.0000000000000000e+00 0 0 0
20 1 -3.5950403929853231e+01 1.9116163750399707e+02 0.0000000000000000e+00 0 0 0
21 1 1.7091622126792177e+02 -5.7302860511835163e+01 0.0000000000000000e+00 0 0 0
22 1 6.8485770374140827e+01 -1.2990697812638055e+02 0.0000000000000000e+00 0 0 0
23 1 -1.6349985691830761e+02 7.8809047185734954e+01 0.0000000000000000e+00 0 0 0
24 1 1.5385233827852922e+01 3.1815644551839309e+01 0.0000000000000000e+00 0 0 0
25 1 1.3275139481782639e+02 6.0677181538826304e+01 0.0000000000000000e+00 0 0 0
26 1 -3.4489941570812611e+01 -8.5870850723986621e+01 0.0000000000000000e+00 0 0 0
27 1 -1.1515291024010119e+02 1.2481454706496059e-01 0.0000000000000000e+00 0 0 0
28 1 4.5045138145005609e+01 1.2200982637045067e+02 0.0000000000000000e+00 0 0 0
29 1 -3.0397740597009379e+00 -3.5420537591853119e+01 0.0000000000000000e+00 0 0 0
30 1 -1.7119094342875258e+02 -3.2501774534854661e+01 0.0000000000000000e+00 0 0 0
31 1 -4.4175563297186208e+01 -1.6068246709325138e+02 0.0000000000000000e+00 0 0 0
32 1 9.2586671638799643e+01 1.5554010797906372e+00 0.0000000000000000e+00 0 0 0

Velocities

1 1.6355028391469720e-01 -1.0201091623375430e-01 0.0000000000000000e+00
2 2.6717283386334129e-01 2.8845489358904457e-02 0.0000000000000000e+00
3 3.3531829506953305e-02 2.1733441555113760e-02 0.0000000000000000e+00
4 2.7413342475529207e-01 2.7641965533781182e-01 0.0000000000000000e+00
5 -1.7387847241608290e-02 -9.3672629883506126e-03 0.0000000000000000e+00
6 -2.1329637127388867e-01 -7.3901182416647879e-02 0.0000000000000000e+00
7 -1.2350495779312916e-03 1.8144368773598640e-01 0.0000000000000000e+00
8 -2.6939881527301091e-01 1.2485581776980675e-02 0.0000000000000000e+00
9 -2.3460408857540491e-01 -1.7226304506799056e-01 0.0000000000000000e+00
10 -2.9043394876762562e-02 -8.8867649110390787e-02 0.0000000000000000e+00
11 -3.2322105520493104e-02 1.2936343849473755e-01 0.0000000000000000e+00
12 -1.4832696398313325e-01 -2.2112602355630021e-01 0.0000000000000000e+00
13 2.7613485702646412e-01 2.2688705999026870e-01 0.0000000000000000e+00
14 1.9565722407525041e-01 9.8980590043093669e-04 0.0000000000000000e+00
15 3.6706241952707136e-01 1.7894646660708827e-01 0.0000000000000000e+00
16 -1.0383589499799326e-01 -4.4112650706344170e-01 0.0000000000000000e+00
17 5.8880814242488651e-03 2.3420034948315807e-01 0.0000000000000000e+00
18 -2.0261977570213880e-02 1.4458898875929224e-01 0.0000000000000000e+00
19 -2.4565853808047841e-01 7.3953070267607557e-02 0.0000000000000000e+00
20 -2.6416786925954544e-01 -2.3770633957912848e-01 0.0000000000000000e+00
21 -7.5869514800753265e-03 4.7006939711331699e-02 0.0000000000000000e+00
22 1.0997522106711947e-01 -2.5656544447123338e-02 0.0000000000000000e+00
23 -3.9055267928636145e-02 -2.2982613877736948e-02 0.0000000000000000e+00
24 -7.0216784168640398e-02 2.0248137886433214e-02 0.0000000000000000e+00
25 1.9296891705911257e-02 3.0744687235344770e-01 0.0000000000000000e+00
26 2.4974974392995791e-01 -1.7048586164452140e-01 0.0000000000000000e+00
27 -3.5078765003055006e-02 1.0133601850895739e-01 0.0000000000000000e+00
28 1.9397394200424020e-01 -4.2458354156975575e-01 0.0000000000000000e+00
29 -3.2391194920774739e-02 3.8464674401637816e-01 0.0000000000000000e+00
30 -2.0410831075277810e-01 -2.1718826360110072e-01 0.0000000000000000e+00
31 -1.2050960264003621e-01 -5.5951655357220714e-02 0.0000000000000000e+00
32 1.6811874098704160e-01 2.0633870322962031e-02 0.0000000000000000e+00
