LAMMPS data file via write_data, version 29 Mar 2019, timestep = 20000000

32 atoms
1 atom types

-1.5000000000000000e+03 1.5000000000000000e+03 xlo xhi
-1.5000000000000000e+03 1.5000000000000000e+03 ylo yhi
-1.5000000000000000e+03 1.5000000000000000e+03 zlo zhi

Masses

1 0.00054858

Pair Coeffs # gauss/cut

1 0.0355436 0 33.6721

Atoms # atomic

1 1 1.0687807411802625e+02 5.9033788827776235e+01 0.0000000000000000e+00 0 0 0
2 1 -2.4864561751913094e+01 2.2525195308448309e+02 0.0000000000000000e+00 0 0 0
3 1 2.1638661706069055e+01 5.0622397389508322e+01 0.0000000000000000e+00 0 0 0
4 1 -8.9394809098806320e+01 1.6784452787400408e+01 0.0000000000000000e+00 0 0 0
5 1 1.1964386420269719e+02 1.4399009755993896e+02 0.0000000000000000e+00 0 0 0
6 1 -2.3865703597063796e+01 9.8946601576149988e+01 0.0000000000000000e+00 0 0 0
7 1 -1.7970958647209898e+02 2.0139579201570723e+02 0.0000000000000000e+00 0 0 0
8 1 -7.0025630163157956e+01 -3.5678852219321527e+01 0.0000000000000000e+00 0 0 0
9 1 -2.1348868165810481e+02 -1.7296102912378842e+02 0.0000000000000000e+00 0 0 0
10 1 1.7796087447680250e+02 -1.3310932438608691e+02 0.0000000000000000e+00 0 0 0
11 1 1.1323828419392336e+02 -1.1411640389723608e+02 0.0000000000000000e+00 0 0 0
12 1 1.0223601435810831e+02 3.9378257587184933e+01 0.0000000000000000e+00 0 0 0
13 1 -1.9001096468350522e+02 2.8390979433789587e+00 0.0000000000000000e+00 0 0 0
14 1 1.9563883884979842e+02 1.4241281049898149e+02 0.0000000000000000e+00 0 0 0
15 1 2.3202153073134619e+02 -2.6926569433607597e+01 0.0000000000000000e+00 0 0 0
16 1 -7.4701387914319625e+01 1.0822411722486720e+02 0.0000000000000000e+00 0 0 0
17 1 2.2847551886029883e+01 -1.8211761123133724e+02 0.0000000000000000e+00 0 0 0
18 1 -7.7161766816652971e+01 -9.6827618729510448e+01 0.0000000000000000e+00 0 0 0
19 1 2.0079999884762557e+02 2.1163026324278515e+01 0.0000000000000000e+00 0 0 0
20 1 4.2473875837175640e+01 1.1338306276771634e+02 0.0000000000000000e+00 0 0 0
21 1 1.3243940352114663e+02 -9.8057811076523578e+01 0.0000000000000000e+00 0 0 0
22 1 -9.7277660299861950e+01 -3.8499359706568960e+01 0.0000000000000000e+00 0 0 0
23 1 -1.9181497232219832e+02 -3.5080801133754804e+01 0.0000000000000000e+00 0 0 0
24 1 5.1604154146686355e+01 1.7360402024983924e+02 0.0000000000000000e+00 0 0 0
25 1 -4.0005922854910970e+01 6.1204253347676179e+01 0.0000000000000000e+00 0 0 0
26 1 2.8574252641422131e+01 1.0611619250910373e+02 0.0000000000000000e+00 0 0 0
27 1 -2.2672927489945889e+02 -1.2208716024037632e+02 0.0000000000000000e+00 0 0 0
28 1 1.0442013645731794e+02 1.7853462539055815e+02 0.0000000000000000e+00 0 0 0
29 1 -1.2256773664717322e+02 -7.4589531448741667e+01 0.0000000000000000e+00 0 0 0
30 1 4.5410325980213308e+01 -7.5526757706733250e+01 0.0000000000000000e+00 0 0 0
31 1 -2.9812752213789487e+01 -1.4921794302066039e+02 0.0000000000000000e+00 0 0 0
32 1 1.7234672246851653e+02 -1.7392690049325799e+02 0.0000000000000000e+00 0 0 0

Velocities

1 1.2641490354599234e-02 -2.5030783956674230e-02 0.0000000000000000e+00
2 -8.3990817528984633e-04 1.5357090578749552e-02 0.0000000000000000e+00
3 2.1376969407903141e-02 -5.0435084404828372e-03 0.0000000000000000e+00
4 5.6992127376416818e-02 -3.2828923937010375e-02 0.0000000000000000e+00
5 -1.7020352038314187e-03 -3.9460440213867534e-02 0.0000000000000000e+00
6 2.9865989741572996e-02 4.4774996419793683e-03 0.0000000000000000e+00
7 1.7159848148223019e-02 2.9759850011406005e-02 0.0000000000000000e+00
8 2.5543974914678171e-02 -6.3562962738074227e-02 0.0000000000000000e+00
9 -1.1883874436780057e-02 1.3801956919971610e-02 0.0000000000000000e+00
10 1.8183679247651852e-02 2.8674228592878610e-02 0.0000000000000000e+00
11 5.2006361168379305e-02 5.7805424314246717e-03 0.0000000000000000e+00
12 -1.5160705741638731e-02 2.5775076515731528e-03 0.0000000000000000e+00
13 -2.3204684425047421e-02 1.8726279042604148e-02 0.0000000000000000e+00
14 3.2251618864233417e-02 1.1304795040706804e-02 0.0000000000000000e+00
15 -2.8449223268684945e-02 3.7361571889681637e-02 0.0000000000000000e+00
16 -5.5520092510221355e-03 4.6822607196327144e-02 0.0000000000000000e+00
17 6.5847555244554748e-04 1.3754145196433492e-02 0.0000000000000000e+00
18 3.6014460991768672e-02 6.8163578697337931e-03 0.0000000000000000e+00
19 2.1099374924388684e-02 5.0142401134728488e-03 0.0000000000000000e+00
20 4.9007726917176642e-02 3.8987774183658647e-02 0.0000000000000000e+00
21 -3.8499332949711003e-03 -5.3981889674131376e-04 0.0000000000000000e+00
22 1.0085022670826463e-02 6.0553430615371403e-03 0.0000000000000000e+00
23 3.7747000961180503e-03 5.5443398336357365e-03 0.0000000000000000e+00
24 -4.7901333224404886e-03 1.0209144836179804e-02 0.0000000000000000e+00
25 4.7762581100849279e-02 7.6265151251255223e-03 0.0000000000000000e+00
26 3.1797705562361098e-02 2.3071491209657142e-02 0.0000000000000000e+00
27 -5.3311390545380082e-03 -4.2676711412013887e-02 0.0000000000000000e+00
28 1.8527272843543170e-02 2.0516196456211132e-02 0.0000000000000000e+00
29 -7.1511913023779876e-03 1.8068080304385930e-02 0.0000000000000000e+00
30 -9.4940222738553182e-03 1.2552447978632754e-02 0.0000000000000000e+00
31 -1.1155680742847172e-02 3.2393195250220060e-02 0.0000000000000000e+00
32 1.8275819440499760e-02 -2.0087631664727823e-02 0.0000000000000000e+00
