LAMMPS data file via write_data, version 29 Mar 2019, timestep = 20000000

32 atoms
1 atom types

-1.5000000000000000e+03 1.5000000000000000e+03 xlo xhi
-1.5000000000000000e+03 1.5000000000000000e+03 ylo yhi
-1.5000000000000000e+03 1.5000000000000000e+03 zlo zhi

Masses

1 0.00054858

Pair Coeffs # gauss/cut

1 0.0355436 0 33.6721

Atoms # atomic

1 1 3.1901328736089528e+02 8.4410507028358680e+01 0.0000000000000000e+00 0 0 0
2 1 -2.0984004304530166e+02 1.5810219848109870e+02 0.0000000000000000e+00 0 0 0
3 1 8.8818464334465389e+01 -8.3050736916195632e+01 0.0000000000000000e+00 0 0 0
4 1 -1.0603116509133896e+01 3.0768528977513131e+02 0.0000000000000000e+00 0 0 0
5 1 6.1561575075172463e+01 1.3268015454955710e+02 0.0000000000000000e+00 0 0 0
6 1 -1.4297044372620752e+02 7.0500664435464913e+01 0.0000000000000000e+00 0 0 0
7 1 1.7831094784077436e+02 8.8077516612168267e+01 0.0000000000000000e+00 0 0 0
8 1 -9.9535109053559381e+01 -1.3197610503251076e+02 0.0000000000000000e+00 0 0 0
9 1 -2.3445600270991115e+01 -9.6381504391996671e+01 0.0000000000000000e+00 0 0 0
10 1 1.6621355390250059e+02 -8.7655693011809007e+01 0.0000000000000000e+00 0 0 0
11 1 1.3958342226651556e+02 4.8328268751255607e+01 0.0000000000000000e+00 0 0 0
12 1 -6.1081713272140732e+01 1.0309146128718469e+01 0.0000000000000000e+00 0 0 0
13 1 -1.7562130964707364e+02 -1.4939183180896617e+02 0.0000000000000000e+00 0 0 0
14 1 2.3327762078232072e+02 7.5787329613801518e+01 0.0000000000000000e+00 0 0 0
15 1 -3.9592917270615921e+01 1.9703149139130883e+01 0.0000000000000000e+00 0 0 0
16 1 -2.0467447570376461e+01 -2.3710015522711444e+01 0.0000000000000000e+00 0 0 0
17 1 -2.1500641993529212e+02 -1.4264184470545183e+02 0.0000000000000000e+00 0 0 0
18 1 1.3835643427586396e+02 -1.4369913323650417e+02 0.0000000000000000e+00 0 0 0
19 1 -3.0985249944637754e+01 1.0722789456592869e+02 0.0000000000000000e+00 0 0 0
20 1 1.5027048831877096e+02 -6.5215720423008406e+01 0.0000000000000000e+00 0 0 0
21 1 5.3247936224959247e+01 -1.4671908388145820e+02 0.0000000000000000e+00 0 0 0
22 1 7.7367919159934644e+01 1.0441250583007796e+02 0.0000000000000000e+00 0 0 0
23 1 -3.6930533102001704e+01 4.9034409606906799e+01 0.0000000000000000e+00 0 0 0
24 1 2.5464631432357999e+02 2.1174161656229980e+01 0.0000000000000000e+00 0 0 0
25 1 -3.4314838341863592e+01 -4.7134480447167945e+01 0.0000000000000000e+00 0 0 0
26 1 -7.2716044363275543e+01 6.1505624309787315e+01 0.0000000000000000e+00 0 0 0
27 1 -7.1212762390351445e+00 1.1209860417033376e+02 0.0000000000000000e+00 0 0 0
28 1 1.3490185202121313e+02 -8.6758135427844092e+00 0.0000000000000000e+00 0 0 0
29 1 -1.7526856305378593e+02 -3.8586553400569542e+01 0.0000000000000000e+00 0 0 0
30 1 -5.0848789929893435e+01 -2.3714122874883859e+02 0.0000000000000000e+00 0 0 0
31 1 8.7420906292872459e+01 -1.5280973278138154e+02 0.0000000000000000e+00 0 0 0
32 1 -1.3167732591334820e+02 1.2195229107956656e+02 0.0000000000000000e+00 0 0 0

Velocities

1 -3.0244338419154297e-02 5.7840675271982958e-03 0.0000000000000000e+00
2 2.3026829097838085e-03 7.3147160501159866e-03 0.0000000000000000e+00
3 2.0491617366959869e-02 1.5156402758589893e-03 0.0000000000000000e+00
4 -9.6515735596564359e-03 -6.5346688512727920e-04 0.0000000000000000e+00
5 1.8538277515305207e-02 2.3232304132586135e-02 0.0000000000000000e+00
6 1.0300074267655522e-02 2.6373656834594139e-02 0.0000000000000000e+00
7 4.7991594159380274e-04 -1.0013576183460779e-03 0.0000000000000000e+00
8 4.0893547334022000e-03 1.4698899421517267e-04 0.0000000000000000e+00
9 -2.6842133555474565e-03 -1.0228746456605658e-02 0.0000000000000000e+00
10 8.5989062613950774e-03 2.8784265572287535e-03 0.0000000000000000e+00
11 2.5540139514556547e-02 2.3965302560296615e-02 0.0000000000000000e+00
12 -1.3234018228338792e-02 -8.9178044603821886e-03 0.0000000000000000e+00
13 1.3140689454103262e-02 -1.1878281014962574e-02 0.0000000000000000e+00
14 -1.3398108229939245e-02 -1.7778891518580985e-02 0.0000000000000000e+00
15 5.9219926048861256e-03 -1.6128421242045710e-02 0.0000000000000000e+00
16 -7.2930967744546851e-03 2.8790907972376799e-03 0.0000000000000000e+00
17 1.1472284362293340e-02 7.0912216160527392e-03 0.0000000000000000e+00
18 5.9902883339724572e-03 -2.1492507933686646e-02 0.0000000000000000e+00
19 -1.8177032593853792e-02 1.4717408522005039e-02 0.0000000000000000e+00
20 8.9171560503345827e-03 3.9917736472080204e-03 0.0000000000000000e+00
21 5.0008912714144937e-03 7.8734348787793413e-03 0.0000000000000000e+00
22 1.1775200680593109e-02 2.3520930870432263e-02 0.0000000000000000e+00
23 -3.2764062281148879e-02 1.1120440108537969e-02 0.0000000000000000e+00
24 -5.9017222552869234e-03 2.8210116629264863e-03 0.0000000000000000e+00
25 -1.2789810350235556e-02 -5.0150258683144180e-03 0.0000000000000000e+00
26 3.3422520849925447e-02 -2.1636935017249360e-04 0.0000000000000000e+00
27 -1.7414793706728292e-02 9.0681151327898311e-03 0.0000000000000000e+00
28 7.2003776202613267e-03 1.5156722824557821e-03 0.0000000000000000e+00
29 -2.2927369900559379e-03 8.2778597075518776e-04 0.0000000000000000e+00
30 -9.5940604088928609e-04 2.2775541123514390e-04 0.0000000000000000e+00
31 1.8004712717612367e-03 6.2220002283973402e-03 0.0000000000000000e+00
32 8.8443877582565986e-03 -3.7487530593992933e-03 0.0000000000000000e+00
