LAMMPS data file via write_data, version 29 Mar 2019, timestep = 20000000

32 atoms
1 atom types

-1.5000000000000000e+03 1.5000000000000000e+03 xlo xhi
-1.5000000000000000e+03 1.5000000000000000e+03 ylo yhi
-1.5000000000000000e+03 1.5000000000000000e+03 zlo zhi

Masses

1 0.00054858

Pair Coeffs # gauss/cut

1 0.0118479 0 33.6721

Atoms # atomic

1 1 -9.6598742342144178e+01 8.4378793688563491e+01 0.0000000000000000e+00 0 0 0
2 1 9.2097304417912191e+00 1.2876325393080221e+00 0.0000000000000000e+00 0 0 0
3 1 1.0159253678659964e+02 -9.5262679747779700e+01 0.0000000000000000e+00 0 0 0
4 1 -8.6099577184664625e+01 -4.9519254334495493e+01 0.0000000000000000e+00 0 0 0
5 1 -1.6414597529021430e+02 -3.5362302493766826e+01 0.0000000000000000e+00 0 0 0
6 1 -1.4792388493732511e+02 8.6741134337941599e+00 0.0000000000000000e+00 0 0 0
7 1 1.7487916950864729e+02 -1.5215098863113812e+02 0.0000000000000000e+00 0 0 0
8 1 6.6382225116571348e+01 -6.0893678659265376e+01 0.0000000000000000e+00 0 0 0
9 1 2.7440851468583716e+01 1.3259590718365207e+01 0.0000000000000000e+00 0 0 0
10 1 -7.9789937114585015e+01 1.6154886885670379e+02 0.0000000000000000e+00 0 0 0
11 1 -1.5762150652105376e+01 7.1877126791454671e+01 0.0000000000000000e+00 0 0 0
12 1 -7.7866868336643321e+01 -1.1389818042842809e+02 0.0000000000000000e+00 0 0 0
13 1 6.1156832363247780e+01 2.1445214325315469e+01 0.0000000000000000e+00 0 0 0
14 1 -4.9756256309806917e+00 -1.3996429364902988e+02 0.0000000000000000e+00 0 0 0
15 1 -1.3401859973032410e+01 -1.1196632828313726e+02 0.0000000000000000e+00 0 0 0
16 1 1.5913963724343418e+02 3.2425590799715700e+01 0.0000000000000000e+00 0 0 0
17 1 8.9188549203602847e+01 1.3914858924405735e+02 0.0000000000000000e+00 0 0 0
18 1 1.2704490887329955e+02 3.5748443923980574e+01 0.0000000000000000e+00 0 0 0
19 1 -4.3679795017264603e+01 -5.3167542096641149e+01 0.0000000000000000e+00 0 0 0
20 1 -2.0496707531978751e+02 7.3336810717381212e+01 0.0000000000000000e+00 0 0 0
21 1 3.5318410632268371e+00 -1.8220536902905525e+02 0.0000000000000000e+00 0 0 0
22 1 -4.0687141300532026e-01 1.4580894924487009e+02 0.0000000000000000e+00 0 0 0
23 1 -1.3704308419617593e+01 6.0646536432852347e+00 0.0000000000000000e+00 0 0 0
24 1 -5.2837793177822640e+01 1.8609711654174284e+01 0.0000000000000000e+00 0 0 0
25 1 1.2979287834005706e+02 1.5893888466632228e+02 0.0000000000000000e+00 0 0 0
26 1 6.1766326994224798e+01 -2.8312137693110639e+01 0.0000000000000000e+00 0 0 0
27 1 -4.7853827260723286e+01 1.3148172091984407e+02 0.0000000000000000e+00 0 0 0
28 1 1.0890360698138242e+02 -6.9809324515238358e-01 0.0000000000000000e+00 0 0 0
29 1 1.0082241125857374e+02 8.5513106499016075e+01 0.0000000000000000e+00 0 0 0
30 1 1.7482059858507682e+02 7.8835608308227961e+01 0.0000000000000000e+00 0 0 0
31 1 -1.9187709285062358e+01 -1.0792435841009332e+02 0.0000000000000000e+00 0 0 0
32 1 -4.4503011955566294e+01 7.7473461884500638e+00 0.0000000000000000e+00 0 0 0

Velocities

1 6.2585545065837900e-03 -1.5771829002447606e-02 0.0000000000000000e+00
2 4.3047711775826225e-02 -1.6173418293814117e-02 0.0000000000000000e+00
3 1.4036498256549838e-02 4.2266537617135072e-02 0.0000000000000000e+00
4 9.8350039205432199e-03 -1.1130335137083466e-02 0.0000000000000000e+00
5 1.6665242923211372e-02 5.4334236332246582e-03 0.0000000000000000e+00
6 -1.1907580337806024e-02 4.6978479204372236e-03 0.0000000000000000e+00
7 -1.5202812354292935e-02 7.1513364295865758e-03 0.0000000000000000e+00
8 -2.3244388986506461e-02 1.6463457806842753e-02 0.0000000000000000e+00
9 1.1328764145549477e-02 -2.4997289331521410e-02 0.0000000000000000e+00
10 -2.8080280868294366e-02 2.8885504804620238e-02 0.0000000000000000e+00
11 2.2024112256091976e-03 -1.8977766476757130e-02 0.0000000000000000e+00
12 -1.6885991462612874e-03 -1.6241499067937353e-02 0.0000000000000000e+00
13 5.8155347914986624e-03 -2.0275835737930462e-02 0.0000000000000000e+00
14 1.1795557671472395e-02 -4.8320701100859932e-02 0.0000000000000000e+00
15 1.8406785086998743e-02 -4.8816263139369606e-03 0.0000000000000000e+00
16 -2.3937643149585394e-02 -4.8401608856193110e-04 0.0000000000000000e+00
17 1.6517165418425298e-02 5.6376064858664234e-03 0.0000000000000000e+00
18 -2.5791498395947080e-04 1.8217686771622901e-02 0.0000000000000000e+00
19 1.3914475409663249e-02 2.5978179306470370e-02 0.0000000000000000e+00
20 4.0544616985101643e-03 -2.1232418145660115e-03 0.0000000000000000e+00
21 2.0520549978326353e-02 2.2316579543928171e-03 0.0000000000000000e+00
22 3.6615570880931043e-02 -2.0735043502199509e-02 0.0000000000000000e+00
23 1.6438007247837644e-02 4.9826775167244198e-03 0.0000000000000000e+00
24 -1.7759379228045540e-02 -2.3442269217489244e-02 0.0000000000000000e+00
25 -1.3128714426204422e-02 1.4199025917396826e-02 0.0000000000000000e+00
26 2.6141424014740781e-02 1.5613530978914729e-02 0.0000000000000000e+00
27 -5.5626237742806284e-03 -2.9251684136227842e-02 0.0000000000000000e+00
28 1.0093365159857714e-02 -6.8521752319668497e-03 0.0000000000000000e+00
29 7.4662563060899183e-03 -3.8021184043884903e-03 0.0000000000000000e+00
30 -2.4645802896594009e-02 -2.3449223463550085e-02 0.0000000000000000e+00
31 -2.0699738540233908e-02 -9.1407269874568681e-03 0.0000000000000000e+00
32 3.2578293467886037e-02 -5.1665475569622355e-03 0.0000000000000000e+00
