LAMMPS data file via write_data, version 29 Mar 2019, timestep = 20000000

32 atoms
1 atom types

-1.5000000000000000e+03 1.5000000000000000e+03 xlo xhi
-1.5000000000000000e+03 1.5000000000000000e+03 ylo yhi
-1.5000000000000000e+03 1.5000000000000000e+03 zlo zhi

Masses

1 0.00054858

Pair Coeffs # gauss/cut

1 0.0355436 0 33.6721

Atoms # atomic

1 1 1.5886728600603325e+02 9.0087853872222254e+01 0.0000000000000000e+00 0 0 0
2 1 -5.4112521162421629e+01 2.0130660068676755e+02 0.0000000000000000e+00 0 0 0
3 1 -6.6870089158153846e+01 4.3687742402596314e+01 0.0000000000000000e+00 0 0 0
4 1 -8.7147779027087125e+01 -1.8927349343256573e+01 0.0000000000000000e+00 0 0 0
5 1 6.6060162625025200e+01 7.0806917310247371e+01 0.0000000000000000e+00 0 0 0
6 1 -7.1349101522083103e+01 1.3591424726514333e+02 0.0000000000000000e+00 0 0 0
7 1 -7.8074354586363839e+01 1.6958978403743490e+02 0.0000000000000000e+00 0 0 0
8 1 -9.4432688471131343e+01 -7.8740676797794990e+01 0.0000000000000000e+00 0 0 0
9 1 -1.7275292021020707e+02 -2.3011040568699318e+02 0.0000000000000000e+00 0 0 0
10 1 4.3257855171598003e+01 -8.9088735285920052e+01 0.0000000000000000e+00 0 0 0
11 1 7.5589670200917936e+01 -1.5835828941820598e+01 0.0000000000000000e+00 0 0 0
12 1 1.7020144596099482e+02 -1.0887183862937636e+01 0.0000000000000000e+00 0 0 0
13 1 -1.0371089932610164e+02 3.8021012177278799e+01 0.0000000000000000e+00 0 0 0
14 1 1.5321225890977732e+02 1.1576731416079099e+02 0.0000000000000000e+00 0 0 0
15 1 2.6345078195834992e+02 1.9964132384536388e+01 0.0000000000000000e+00 0 0 0
16 1 -2.0353329297295421e+01 1.3684978364724403e+01 0.0000000000000000e+00 0 0 0
17 1 1.2606691581354858e+02 -1.3644419813572253e+02 0.0000000000000000e+00 0 0 0
18 1 -1.7175672737889595e+01 -1.7951901849975778e+02 0.0000000000000000e+00 0 0 0
19 1 2.0143451891323383e+02 7.3704703805099547e-01 0.0000000000000000e+00 0 0 0
20 1 7.7416213735153647e+01 1.8707153289656389e+02 0.0000000000000000e+00 0 0 0
21 1 5.0289226796119486e+01 -1.9341847054372927e+01 0.0000000000000000e+00 0 0 0
22 1 1.3051173824741383e+01 2.0728208899034151e+01 0.0000000000000000e+00 0 0 0
23 1 -2.3178071788735249e+02 9.6498164673595014e+01 0.0000000000000000e+00 0 0 0
24 1 6.0283636675806591e+01 1.3701735526778128e+02 0.0000000000000000e+00 0 0 0
25 1 1.3300209828449994e+02 6.2014512129995964e+01 0.0000000000000000e+00 0 0 0
26 1 3.2516068283115409e+01 1.6628216148382730e+01 0.0000000000000000e+00 0 0 0
27 1 -2.3478308315452259e+02 -1.6110694320289201e+02 0.0000000000000000e+00 0 0 0
28 1 3.2897852936805272e+01 1.1216394723948896e+02 0.0000000000000000e+00 0 0 0
29 1 -1.2952321869443662e+02 -5.7615886430647762e+01 0.0000000000000000e+00 0 0 0
30 1 -1.5489561169142116e+01 -1.2707643047174084e+02 0.0000000000000000e+00 0 0 0
31 1 -3.0167432042603814e+01 -1.8144751646457021e+02 0.0000000000000000e+00 0 0 0
32 1 2.0326746700894199e+02 -1.5437147285055519e+02 0.0000000000000000e+00 0 0 0

Velocities

1 3.2370817108593922e-02 -3.9518112585698206e-02 0.0000000000000000e+00
2 -1.7183535160509641e-03 -1.5074627711308249e-02 0.0000000000000000e+00
3 1.5492120145966539e-04 3.3314308286396033e-02 0.0000000000000000e+00
4 4.3408065811643588e-02 -2.1021576178424376e-02 0.0000000000000000e+00
5 -9.3658163131572266e-03 2.4078748088787134e-02 0.0000000000000000e+00
6 8.5086442084316496e-02 -4.8306324969245605e-02 0.0000000000000000e+00
7 3.6705603006460044e-02 8.6545134473291034e-03 0.0000000000000000e+00
8 -3.1382086014758244e-03 -2.9317002266194915e-02 0.0000000000000000e+00
9 4.1753256733515279e-02 4.8396115959359776e-02 0.0000000000000000e+00
10 -5.8677124786931295e-02 -9.9347116756490200e-03 0.0000000000000000e+00
11 6.8185343378435362e-02 8.5724328808585340e-02 0.0000000000000000e+00
12 5.1158214622402727e-02 -6.9306813664537920e-02 0.0000000000000000e+00
13 -6.5956258052863887e-04 -2.9440782152604383e-02 0.0000000000000000e+00
14 -2.1236724880105706e-02 -7.6483727171506232e-03 0.0000000000000000e+00
15 -4.4901624878477951e-02 3.9872301614370845e-02 0.0000000000000000e+00
16 -1.2890650249342186e-02 3.4223617208784141e-02 0.0000000000000000e+00
17 9.7859449670258686e-03 -1.2270629998345302e-02 0.0000000000000000e+00
18 4.7944697795244830e-02 -1.9038536842756037e-02 0.0000000000000000e+00
19 -4.0514400697896621e-02 -9.2817173169070779e-04 0.0000000000000000e+00
20 4.5310447588792234e-02 -6.4315617562130056e-02 0.0000000000000000e+00
21 -2.8567136979724250e-02 -8.3466184949967451e-03 0.0000000000000000e+00
22 2.1403036735787334e-02 7.6991460990841754e-02 0.0000000000000000e+00
23 -1.6782164005271237e-02 1.0161871861290465e-02 0.0000000000000000e+00
24 1.8233200423911595e-02 3.8231630329963878e-03 0.0000000000000000e+00
25 1.4280170907577440e-02 -8.5989599668528871e-02 0.0000000000000000e+00
26 -4.2607790265907365e-02 -1.7189267420366625e-02 0.0000000000000000e+00
27 8.2147435736869501e-02 -3.4353833298072484e-02 0.0000000000000000e+00
28 -5.5041622409462546e-02 -2.6686776439861486e-02 0.0000000000000000e+00
29 2.8484826722338166e-02 1.9430329591562146e-02 0.0000000000000000e+00
30 -8.7685561840161795e-04 1.0768501978264569e-01 0.0000000000000000e+00
31 -4.6296006053220373e-02 1.0019403079841532e-02 0.0000000000000000e+00
32 -5.9036219115863049e-02 4.5858237150833026e-03 0.0000000000000000e+00
