LAMMPS data file via write_data, version 29 Mar 2019, timestep = 20000000

32 atoms
1 atom types

-1.5000000000000000e+03 1.5000000000000000e+03 xlo xhi
-1.5000000000000000e+03 1.5000000000000000e+03 ylo yhi
-1.5000000000000000e+03 1.5000000000000000e+03 zlo zhi

Masses

1 0.00054858

Pair Coeffs # gauss/cut

1 0.0118479 0 33.6721

Atoms # atomic

1 1 -4.2425781904998153e+01 -9.7618528855921596e+01 0.0000000000000000e+00 0 0 0
2 1 2.5073470953051377e+01 -3.4159593261345876e+01 0.0000000000000000e+00 0 0 0
3 1 -5.1697940062712483e+01 7.5881723216900063e+00 0.0000000000000000e+00 0 0 0
4 1 -9.4673660793747686e+01 -1.6939434742322445e+02 0.0000000000000000e+00 0 0 0
5 1 -1.6739957847445672e+02 -1.7588662851194451e+02 0.0000000000000000e+00 0 0 0
6 1 -2.7514180564727106e+01 6.2894894775472288e+01 0.0000000000000000e+00 0 0 0
7 1 1.3876841751113105e+02 -1.6172045102708688e+02 0.0000000000000000e+00 0 0 0
8 1 2.1231067989120245e+00 -1.4610799301323064e+02 0.0000000000000000e+00 0 0 0
9 1 1.3188711954330508e+00 -2.0390879281944842e+02 0.0000000000000000e+00 0 0 0
10 1 -8.5662418271447791e+01 1.3604485220309545e+02 0.0000000000000000e+00 0 0 0
11 1 1.9439130254446221e+02 7.1645421244590395e+01 0.0000000000000000e+00 0 0 0
12 1 -5.7781126489445711e+01 -1.6029249197191089e+02 0.0000000000000000e+00 0 0 0
13 1 -8.7349612025327289e+01 -8.0841078859398134e+00 0.0000000000000000e+00 0 0 0
14 1 -1.3587835119477219e+02 -4.6734128844667737e+01 0.0000000000000000e+00 0 0 0
15 1 -3.6446121912404401e+01 -4.7251344623763437e+01 0.0000000000000000e+00 0 0 0
16 1 6.9120261485124928e+01 -1.5105613209364606e+02 0.0000000000000000e+00 0 0 0
17 1 -5.9996952811372758e+01 9.1468016969830416e+01 0.0000000000000000e+00 0 0 0
18 1 7.0879998824999575e+01 1.1639967575632812e+02 0.0000000000000000e+00 0 0 0
19 1 -3.7965526931949206e+01 6.9801145748382808e+01 0.0000000000000000e+00 0 0 0
20 1 -1.7079861773564713e+02 2.0750969507422283e+01 0.0000000000000000e+00 0 0 0
21 1 -1.9207191419793099e+02 -7.3724663219889919e+01 0.0000000000000000e+00 0 0 0
22 1 2.4678775729835163e+01 4.0320567669524038e+01 0.0000000000000000e+00 0 0 0
23 1 1.1696588627221118e+02 1.5901006236776252e+02 0.0000000000000000e+00 0 0 0
24 1 -9.8755820692595449e+01 1.5270506150573459e+01 0.0000000000000000e+00 0 0 0
25 1 2.9680966309091673e+01 2.1859828945734401e+02 0.0000000000000000e+00 0 0 0
26 1 1.0842609551296894e+02 -1.5276001515304520e+01 0.0000000000000000e+00 0 0 0
27 1 -1.0799851588178878e+02 8.3538602236915594e+01 0.0000000000000000e+00 0 0 0
28 1 8.1650171944175923e+01 -8.1011099107434745e+01 0.0000000000000000e+00 0 0 0
29 1 1.9541940599720766e+02 -3.4341689028722477e+01 0.0000000000000000e+00 0 0 0
30 1 1.6716689885203274e+02 9.9859326266182311e+00 0.0000000000000000e+00 0 0 0
31 1 1.1531746272140701e+02 -1.3929917184718124e+02 0.0000000000000000e+00 0 0 0
32 1 1.9260756144689367e+01 2.0382534559438280e+01 0.0000000000000000e+00 0 0 0

Velocities

1 5.2964518406454861e-03 1.4647073622773005e-02 0.0000000000000000e+00
2 1.9868492829679816e-02 -2.3632139499058769e-03 0.0000000000000000e+00
3 -9.7886136225319026e-03 4.4159276663589930e-02 0.0000000000000000e+00
4 -5.1991184161705338e-03 5.6132642756976788e-03 0.0000000000000000e+00
5 -5.0151764164132133e-02 2.1940653289357404e-02 0.0000000000000000e+00
6 -2.9904044053231660e-02 -4.5710948105393964e-03 0.0000000000000000e+00
7 -1.0685155700931207e-02 1.9765276185403073e-02 0.0000000000000000e+00
8 -5.6129953191887204e-02 -3.5215462515899493e-02 0.0000000000000000e+00
9 7.3026482713030210e-03 6.2632553647789784e-03 0.0000000000000000e+00
10 -2.6165018488845562e-03 -2.0390594822244434e-02 0.0000000000000000e+00
11 3.7686817432730370e-02 2.3112231191546428e-02 0.0000000000000000e+00
12 1.0956299588849935e-02 7.8812823873921738e-03 0.0000000000000000e+00
13 -8.8231750465070594e-03 1.0559083542256379e-03 0.0000000000000000e+00
14 -1.3240182829088596e-02 -7.3957280306316802e-03 0.0000000000000000e+00
15 5.1781211350289775e-03 2.1465212157482434e-02 0.0000000000000000e+00
16 -1.8906353096429688e-02 -1.1868113549437200e-02 0.0000000000000000e+00
17 -4.3900165082063992e-02 1.1636506111868119e-02 0.0000000000000000e+00
18 3.8784472813223794e-02 3.0915180703812582e-02 0.0000000000000000e+00
19 -1.8081700447668891e-02 -4.0369081249566158e-04 0.0000000000000000e+00
20 -4.3857128694874681e-02 7.1240525924945184e-03 0.0000000000000000e+00
21 -2.3577116015436873e-02 -7.8325331882367680e-04 0.0000000000000000e+00
22 3.2946822887020423e-02 4.7589644400194732e-03 0.0000000000000000e+00
23 -1.4705320565063034e-02 2.5968735374855143e-02 0.0000000000000000e+00
24 -1.3177960148841266e-02 -2.6472163412908620e-02 0.0000000000000000e+00
25 -8.7356893340046031e-03 -1.5538179778278215e-02 0.0000000000000000e+00
26 -1.5328917770481220e-02 1.2093919571839825e-02 0.0000000000000000e+00
27 1.1483165905202002e-02 -1.4063351518065108e-02 0.0000000000000000e+00
28 1.0969214664067558e-02 -1.6645169557625780e-02 0.0000000000000000e+00
29 1.2084271520621592e-02 -1.7271950424654927e-02 0.0000000000000000e+00
30 -8.6350278686002299e-02 -2.2100846447127419e-02 0.0000000000000000e+00
31 9.3386133983737272e-03 -2.8305087705246302e-02 0.0000000000000000e+00
32 1.6065748166775376e-02 -4.2859733782198844e-02 0.0000000000000000e+00
