LAMMPS data file via write_data, version 29 Mar 2019, timestep = 20000000

32 atoms
1 atom types

-1.5000000000000000e+03 1.5000000000000000e+03 xlo xhi
-1.5000000000000000e+03 1.5000000000000000e+03 ylo yhi
-1.5000000000000000e+03 1.5000000000000000e+03 zlo zhi

Masses

1 0.00054858

Pair Coeffs # gauss/cut

1 0.0355436 0 33.6721

Atoms # atomic

1 1 2.6218672550806076e+02 4.6160885064378597e+01 0.0000000000000000e+00 0 0 0
2 1 -2.2206603445449628e+02 2.0709412280670571e+02 0.0000000000000000e+00 0 0 0
3 1 3.6094552409520702e+01 -7.1547196412048677e+01 0.0000000000000000e+00 0 0 0
4 1 -1.4522631385359173e+01 2.8753026470137547e+02 0.0000000000000000e+00 0 0 0
5 1 1.0219042988065047e+02 9.0692116924417263e+01 0.0000000000000000e+00 0 0 0
6 1 -1.9620092275004197e+02 7.0566582762698729e+01 0.0000000000000000e+00 0 0 0
7 1 1.7427906832324169e+02 1.3044886944467700e+02 0.0000000000000000e+00 0 0 0
8 1 -1.3443712812391348e+02 -1.2864170792220037e+02 0.0000000000000000e+00 0 0 0
9 1 -9.4969153584791997e+01 -1.7927617151828423e+02 0.0000000000000000e+00 0 0 0
10 1 1.9951261951088622e+02 -8.4365967155163773e+01 0.0000000000000000e+00 0 0 0
11 1 1.5339888788903627e+02 5.4464220460646814e+01 0.0000000000000000e+00 0 0 0
12 1 -5.6527347356591209e+00 6.7791321425386229e+01 0.0000000000000000e+00 0 0 0
13 1 -1.5963942469497164e+02 -1.3159133316881307e+02 0.0000000000000000e+00 0 0 0
14 1 1.8060087095432303e+02 9.3047421156584193e+01 0.0000000000000000e+00 0 0 0
15 1 -4.1921490455838125e+01 9.2372058878785301e-02 0.0000000000000000e+00 0 0 0
16 1 -2.2338620443931827e+01 -3.6168288714476844e+01 0.0000000000000000e+00 0 0 0
17 1 -2.8789966537501635e+02 -1.0040601809579351e+02 0.0000000000000000e+00 0 0 0
18 1 1.3419051275039681e+02 -1.9608956358059194e+02 0.0000000000000000e+00 0 0 0
19 1 1.2611966862709739e+01 1.5182617943740323e+02 0.0000000000000000e+00 0 0 0
20 1 1.2560395759700278e+02 -3.1541991851231263e+01 0.0000000000000000e+00 0 0 0
21 1 2.1435469283965098e+01 -1.1225965976224079e+02 0.0000000000000000e+00 0 0 0
22 1 1.1264538707418056e+02 9.6029433505110759e+01 0.0000000000000000e+00 0 0 0
23 1 -7.3464639414508568e+01 7.6509018509014410e+01 0.0000000000000000e+00 0 0 0
24 1 3.2027162048125075e+02 -3.7266261035354475e+01 0.0000000000000000e+00 0 0 0
25 1 -5.8599931937755493e+01 1.9826065194407299e+01 0.0000000000000000e+00 0 0 0
26 1 -5.5505234015329577e+01 8.7294300809250828e+01 0.0000000000000000e+00 0 0 0
27 1 -6.6540863996871622e+01 1.0160150784097584e+02 0.0000000000000000e+00 0 0 0
28 1 1.0018937770690573e+02 -5.8904014295905158e+00 0.0000000000000000e+00 0 0 0
29 1 -8.9291739045651383e+01 -6.4576073985901957e+01 0.0000000000000000e+00 0 0 0
30 1 -8.3452010819797209e+01 -2.2832362404117831e+02 0.0000000000000000e+00 0 0 0
31 1 5.5387367557849380e+01 -1.9343571749912027e+02 0.0000000000000000e+00 0 0 0
32 1 -1.4819093592669185e+02 1.7001463980665125e+02 0.0000000000000000e+00 0 0 0

Velocities

1 -1.7856499074486897e-02 -1.9018349681757106e-02 0.0000000000000000e+00
2 5.1099996023984589e-03 -4.7366827018777979e-03 0.0000000000000000e+00
3 -1.7505367046355788e-02 -3.9950246991807912e-03 0.0000000000000000e+00
4 -1.1290815071155607e-02 1.8852720343403372e-02 0.0000000000000000e+00
5 6.5197173261742365e-03 2.2719968948432716e-03 0.0000000000000000e+00
6 -2.5385758100139356e-03 -2.4047092992168149e-02 0.0000000000000000e+00
7 -6.6396198282212878e-03 3.5802420823690673e-03 0.0000000000000000e+00
8 1.0800413327820686e-02 -8.3703479060861855e-03 0.0000000000000000e+00
9 6.0384372425585217e-03 -5.6897412283367461e-03 0.0000000000000000e+00
10 -2.4097189147289706e-02 2.8610949059977176e-02 0.0000000000000000e+00
11 -1.2547410198463907e-02 6.8803138933834409e-03 0.0000000000000000e+00
12 1.2753632203756127e-02 4.0231778156972044e-03 0.0000000000000000e+00
13 1.9684519284207190e-02 2.1607168213251853e-02 0.0000000000000000e+00
14 -1.2132721592233983e-02 -7.5557461175097113e-04 0.0000000000000000e+00
15 1.3676860680947041e-02 -9.6626767691974187e-04 0.0000000000000000e+00
16 -1.1205584014002904e-02 -3.4901875410293347e-03 0.0000000000000000e+00
17 8.6660056759535944e-03 -5.1134275227598660e-03 0.0000000000000000e+00
18 4.2488136944742738e-03 1.7637046322502577e-02 0.0000000000000000e+00
19 1.6574046617488049e-02 2.3917948584848192e-02 0.0000000000000000e+00
20 3.5527344130792176e-04 -1.1218655206435687e-02 0.0000000000000000e+00
21 -1.7703765203171812e-02 -3.1924246646861218e-03 0.0000000000000000e+00
22 4.6839680933269462e-03 -3.9957743993625783e-03 0.0000000000000000e+00
23 7.6073937098475059e-03 -1.8434115189284499e-02 0.0000000000000000e+00
24 -1.9646347121025472e-02 1.9802419273683815e-03 0.0000000000000000e+00
25 -2.1020547756473065e-02 6.0266641962390460e-03 0.0000000000000000e+00
26 -1.3305301014136484e-02 -4.5179763541148736e-03 0.0000000000000000e+00
27 -4.0710783848279201e-03 8.4339005274264387e-03 0.0000000000000000e+00
28 -5.2861821822105018e-04 -7.9723493365974844e-03 0.0000000000000000e+00
29 1.1406622548157016e-02 2.1072974285419318e-02 0.0000000000000000e+00
30 -2.4010127259066295e-02 1.8227521612704228e-02 0.0000000000000000e+00
31 -3.3472447862856282e-02 -6.5833056654702625e-03 0.0000000000000000e+00
32 -1.9817867650044837e-02 2.3571133441447283e-02 0.0000000000000000e+00
