LAMMPS data file via write_data, version 29 Mar 2019, timestep = 20000000

32 atoms
1 atom types

-1.5000000000000000e+03 1.5000000000000000e+03 xlo xhi
-1.5000000000000000e+03 1.5000000000000000e+03 ylo yhi
-1.5000000000000000e+03 1.5000000000000000e+03 zlo zhi

Masses

1 0.00054858

Pair Coeffs # gauss/cut

1 0.0118479 0 33.6721

Atoms # atomic

1 1 5.0781597061592578e+01 9.6477865569290856e+01 0.0000000000000000e+00 0 0 0
2 1 -3.9656289367309640e+01 -2.6986285054625895e+01 0.0000000000000000e+00 0 0 0
3 1 8.6831801415640655e+01 2.1872536179087490e+01 0.0000000000000000e+00 0 0 0
4 1 4.4837563611946230e+01 -3.5472944734697805e+01 0.0000000000000000e+00 0 0 0
5 1 -2.0592238768262799e+01 -2.0977184407750650e+02 0.0000000000000000e+00 0 0 0
6 1 -2.2047541091299763e+01 -3.0288985265204079e+01 0.0000000000000000e+00 0 0 0
7 1 -8.9692097162209166e+01 -5.7781907467288409e+00 0.0000000000000000e+00 0 0 0
8 1 5.0896953532759397e+01 -5.1975065766436984e+01 0.0000000000000000e+00 0 0 0
9 1 -1.6286073435549465e+01 -1.4688457938499147e+02 0.0000000000000000e+00 0 0 0
10 1 -2.1023498843381816e+01 1.4475133723553964e+02 0.0000000000000000e+00 0 0 0
11 1 -8.2803146958102829e+01 2.8187173866714165e+01 0.0000000000000000e+00 0 0 0
12 1 3.8686856452448474e+01 -3.4784235466878464e+01 0.0000000000000000e+00 0 0 0
13 1 2.2045495166272727e+02 -1.2409511283020295e+02 0.0000000000000000e+00 0 0 0
14 1 -8.9197539234264084e+01 -1.1609681318979268e+02 0.0000000000000000e+00 0 0 0
15 1 -1.9668456983951867e+02 -1.9281520394729334e+01 0.0000000000000000e+00 0 0 0
16 1 8.9340745204654894e+01 -1.4572733484410929e+02 0.0000000000000000e+00 0 0 0
17 1 1.5814249354293887e+02 1.0035258815444347e+02 0.0000000000000000e+00 0 0 0
18 1 1.7865617799008479e+02 3.2430750857553257e+01 0.0000000000000000e+00 0 0 0
19 1 7.6940239773392619e+01 7.9722740362987281e+01 0.0000000000000000e+00 0 0 0
20 1 -7.9943355893193102e+00 3.6291041926935968e+01 0.0000000000000000e+00 0 0 0
21 1 1.7001402086566639e+01 1.6205038201459391e+02 0.0000000000000000e+00 0 0 0
22 1 -1.7608078137196048e+02 -5.2336245070385736e+01 0.0000000000000000e+00 0 0 0
23 1 -1.0807550554866391e+02 1.4052251510028515e+02 0.0000000000000000e+00 0 0 0
24 1 -5.0272692949356568e+01 -7.2475067330812193e-01 0.0000000000000000e+00 0 0 0
25 1 8.4207804935871735e+01 6.4666754683120786e+01 0.0000000000000000e+00 0 0 0
26 1 3.9234080986218567e+00 -1.6458146778502527e+01 0.0000000000000000e+00 0 0 0
27 1 -3.8556021069553061e+01 -8.8840377141956893e+01 0.0000000000000000e+00 0 0 0
28 1 5.2066737962164893e+01 3.4987925809536335e+01 0.0000000000000000e+00 0 0 0
29 1 1.0888360347673645e+02 1.2893119808939124e+02 0.0000000000000000e+00 0 0 0
30 1 2.1531945511514058e+02 -9.2216153788884565e+00 0.0000000000000000e+00 0 0 0
31 1 2.5748108297339911e+02 -5.5400116477781765e+01 0.0000000000000000e+00 0 0 0
32 1 -1.0090866170770875e+02 2.0402729284865896e+02 0.0000000000000000e+00 0 0 0

Velocities

1 -2.8453227924785096e-01 1.5500584862845912e-01 0.0000000000000000e+00
2 -2.6337603398204821e-02 -1.1273234436653262e-02 0.0000000000000000e+00
3 7.8299915412406215e-03 -1.2649343169520008e-01 0.0000000000000000e+00
4 9.7085043642025928e-02 -7.0485989440199903e-02 0.0000000000000000e+00
5 -2.3069305878853494e-01 7.6680617985090113e-02 0.0000000000000000e+00
6 -9.7027666199016996e-02 1.1968647640605538e-01 0.0000000000000000e+00
7 -8.0021393143872951e-02 1.6810941433099441e-01 0.0000000000000000e+00
8 1.9437298124035304e-01 1.1495381646295939e-02 0.0000000000000000e+00
9 2.4530555961598356e-02 -1.4949580236211896e-01 0.0000000000000000e+00
10 -1.1573542276153601e-01 2.4673068613954446e-01 0.0000000000000000e+00
11 2.0899465074926848e-01 3.5411319756828166e-02 0.0000000000000000e+00
12 -3.9618325280486215e-03 2.0582078763672629e-02 0.0000000000000000e+00
13 -2.8353625418958411e-01 8.1771875796412458e-02 0.0000000000000000e+00
14 1.1043331836551673e-01 3.4653255031877739e-01 0.0000000000000000e+00
15 -4.5108514482200329e-03 -3.4612459339418988e-01 0.0000000000000000e+00
16 -3.9196472126152326e-01 2.8762909111041512e-01 0.0000000000000000e+00
17 5.2174135549888270e-02 1.4128671675152804e-02 0.0000000000000000e+00
18 2.4427147565404370e-01 -1.1613227634390179e-01 0.0000000000000000e+00
19 -1.8242401853078974e-01 -7.4074341983550826e-02 0.0000000000000000e+00
20 -4.2728992562079798e-01 -1.2192775955061275e-01 0.0000000000000000e+00
21 8.8771225661879172e-02 -1.0992896659069602e-01 0.0000000000000000e+00
22 9.4513526938858367e-02 5.8591370876840777e-02 0.0000000000000000e+00
23 6.9234158668263879e-02 -2.5563390800669081e-02 0.0000000000000000e+00
24 -2.0318272123188894e-01 -1.6952399872601562e-01 0.0000000000000000e+00
25 -3.8205306659778399e-01 -6.4540895881432359e-02 0.0000000000000000e+00
26 1.8964482598574994e-01 3.6781326805192596e-02 0.0000000000000000e+00
27 2.8411024178906641e-01 -2.4247959367312468e-02 0.0000000000000000e+00
28 3.2569520086241831e-02 1.8286827362416105e-01 0.0000000000000000e+00
29 -3.1465888939772466e-02 -7.7976498080677886e-02 0.0000000000000000e+00
30 -1.9096248671833407e-01 -3.4021188348489204e-02 0.0000000000000000e+00
31 2.0550001371266574e-01 -2.6792162618290812e-02 0.0000000000000000e+00
32 -8.4256922333980841e-02 -1.7919596288564191e-01 0.0000000000000000e+00
