LAMMPS data file via write_data, version 29 Mar 2019, timestep = 20000000

32 atoms
1 atom types

-1.5000000000000000e+03 1.5000000000000000e+03 xlo xhi
-1.5000000000000000e+03 1.5000000000000000e+03 ylo yhi
-1.5000000000000000e+03 1.5000000000000000e+03 zlo zhi

Masses

1 0.00054858

Pair Coeffs # gauss/cut

1 0.0118479 0 33.6721

Atoms # atomic

1 1 -9.5894290324275715e+01 6.8243478225097888e+01 0.0000000000000000e+00 0 0 0
2 1 1.0817489717555613e+01 -7.9121327149078058e-01 0.0000000000000000e+00 0 0 0
3 1 1.0508331400043177e+02 -8.4022121125248077e+01 0.0000000000000000e+00 0 0 0
4 1 -4.2267125413598762e+01 -2.1488233161827889e+01 0.0000000000000000e+00 0 0 0
5 1 -1.4980200949729462e+02 -1.1836658948149164e+02 0.0000000000000000e+00 0 0 0
6 1 -1.9068211045680007e+02 -3.0552441466816262e+01 0.0000000000000000e+00 0 0 0
7 1 1.5796990700871518e+02 -9.2328288481727583e+01 0.0000000000000000e+00 0 0 0
8 1 6.5075961824005020e+01 -1.5174637936388342e+02 0.0000000000000000e+00 0 0 0
9 1 6.8208307670844732e+01 -2.5885824045043357e+01 0.0000000000000000e+00 0 0 0
10 1 -1.1047286402054759e+02 9.0323660332940122e+01 0.0000000000000000e+00 0 0 0
11 1 3.4166639012405405e+01 9.7699225265123985e+01 0.0000000000000000e+00 0 0 0
12 1 -6.1407175320858343e+01 -1.2699354707711721e+02 0.0000000000000000e+00 0 0 0
13 1 -1.2265810455875933e+01 -4.4829385401297522e+01 0.0000000000000000e+00 0 0 0
14 1 -3.7173154031801239e+01 -1.0493229507904748e+02 0.0000000000000000e+00 0 0 0
15 1 -1.6888645174686050e+02 -1.0931638314222569e+02 0.0000000000000000e+00 0 0 0
16 1 1.5636614986755959e+02 4.3129667809620813e+01 0.0000000000000000e+00 0 0 0
17 1 8.6081562352813151e+01 1.5287635412225967e+02 0.0000000000000000e+00 0 0 0
18 1 8.6492415039904742e+01 1.1043540492079245e+02 0.0000000000000000e+00 0 0 0
19 1 -7.5082892282640444e+01 -2.9879287695877895e+01 0.0000000000000000e+00 0 0 0
20 1 -2.1188035781548882e+02 5.8851244200566192e+01 0.0000000000000000e+00 0 0 0
21 1 -5.9200057666887865e+01 -1.8721753440490494e+02 0.0000000000000000e+00 0 0 0
22 1 6.0538476742581842e+01 7.3352688212482249e+01 0.0000000000000000e+00 0 0 0
23 1 -5.3664179110716972e+01 4.6668092738047093e+01 0.0000000000000000e+00 0 0 0
24 1 -1.3399076685486969e+01 2.0807305706283120e+01 0.0000000000000000e+00 0 0 0
25 1 1.1871633871594712e+02 1.8990059185818734e+02 0.0000000000000000e+00 0 0 0
26 1 7.6937785113117997e+01 2.7883747157934366e+01 0.0000000000000000e+00 0 0 0
27 1 -9.7094030705554701e+01 3.2472295426543326e+01 0.0000000000000000e+00 0 0 0
28 1 2.9272342514042439e+01 -3.3039725155199129e+01 0.0000000000000000e+00 0 0 0
29 1 1.2852144488942756e+02 1.2801786658337527e+01 0.0000000000000000e+00 0 0 0
30 1 1.7119586032167422e+02 2.1205734749354736e+01 0.0000000000000000e+00 0 0 0
31 1 4.0030065966063489e+01 -1.1171610500930710e+02 0.0000000000000000e+00 0 0 0
32 1 4.2941528027319158e+01 1.7938158911163040e+01 0.0000000000000000e+00 0 0 0

Velocities

1 2.9256624699870219e-02 -9.1347019756995371e-03 0.0000000000000000e+00
2 1.2253144236187628e-03 -1.2567395813111846e-02 0.0000000000000000e+00
3 -4.2468544757350794e-03 -3.5027467960956848e-02 0.0000000000000000e+00
4 1.1995418464987070e-03 1.4133446499471420e-02 0.0000000000000000e+00
5 4.6300113961547425e-03 -9.9605680302878898e-03 0.0000000000000000e+00
6 2.5120642573507400e-02 -6.2153285128519024e-03 0.0000000000000000e+00
7 -1.6489923364169976e-02 -5.0757625827559105e-03 0.0000000000000000e+00
8 -3.3614301535792785e-03 1.9373535113676819e-02 0.0000000000000000e+00
9 1.9523744431234495e-02 1.0262813369609547e-02 0.0000000000000000e+00
10 3.4910184611238810e-04 -1.2145492534725881e-02 0.0000000000000000e+00
11 1.0919387467927897e-02 -1.8456908312527758e-02 0.0000000000000000e+00
12 1.7273104840997262e-02 1.1728274259030488e-02 0.0000000000000000e+00
13 -9.3329684876233294e-03 1.4367462222271019e-02 0.0000000000000000e+00
14 7.5863284922515145e-03 -1.1593174383951873e-02 0.0000000000000000e+00
15 2.6004331917524773e-02 1.6272207995979584e-02 0.0000000000000000e+00
16 -8.4674156171337736e-03 3.0900618760773144e-02 0.0000000000000000e+00
17 -1.4473376657280455e-02 -4.5948031018258687e-03 0.0000000000000000e+00
18 -5.1443108892517764e-03 -1.8163097415723663e-02 0.0000000000000000e+00
19 -1.2860128512781090e-02 6.5463546620842901e-03 0.0000000000000000e+00
20 2.1795713096848675e-04 -4.0940009265695498e-03 0.0000000000000000e+00
21 5.8069864808377725e-03 9.2799570580138135e-04 0.0000000000000000e+00
22 1.3702090743309749e-02 -7.6730376893429288e-03 0.0000000000000000e+00
23 -1.1340745558904001e-02 1.0521189496787080e-02 0.0000000000000000e+00
24 3.9221127220859554e-03 -7.9382919337468699e-03 0.0000000000000000e+00
25 -2.7936122721737861e-02 2.5148008799820418e-02 0.0000000000000000e+00
26 4.6877394175607167e-03 1.0354481296583366e-02 0.0000000000000000e+00
27 1.7616187294177278e-02 -4.5028714442425267e-03 0.0000000000000000e+00
28 -1.4622691252170771e-02 2.0556993259159068e-02 0.0000000000000000e+00
29 -2.7318948821753240e-03 1.6884988682337961e-02 0.0000000000000000e+00
30 -2.1187331330147493e-02 -4.3987840530011497e-03 0.0000000000000000e+00
31 4.3135900312626842e-03 -2.0629355435017080e-02 0.0000000000000000e+00
32 -3.6890226926077359e-02 2.3696112750751810e-02 0.0000000000000000e+00
