LAMMPS data file via write_data, version 29 Mar 2019, timestep = 20000000

32 atoms
1 atom types

-1.5000000000000000e+03 1.5000000000000000e+03 xlo xhi
-1.5000000000000000e+03 1.5000000000000000e+03 ylo yhi
-1.5000000000000000e+03 1.5000000000000000e+03 zlo zhi

Masses

1 0.00054858

Pair Coeffs # gauss/cut

1 0.0355436 0 33.6721

Atoms # atomic

1 1 2.8651442771450667e+02 1.8322038062918633e+01 0.0000000000000000e+00 0 0 0
2 1 -1.3982216769957125e+02 1.0787925289759140e+02 0.0000000000000000e+00 0 0 0
3 1 1.8672565112085042e+01 2.3897134518938618e+01 0.0000000000000000e+00 0 0 0
4 1 -1.2667847232481374e+02 1.7160898472655401e+02 0.0000000000000000e+00 0 0 0
5 1 5.9283500941063615e+01 2.1757195934712428e+02 0.0000000000000000e+00 0 0 0
6 1 -2.4900437429375458e+02 4.4568512663752259e+01 0.0000000000000000e+00 0 0 0
7 1 1.2798421912434176e+02 1.7544603008054929e+02 0.0000000000000000e+00 0 0 0
8 1 -1.4677681821437389e+01 -2.1648579195441059e+02 0.0000000000000000e+00 0 0 0
9 1 -1.9402007654936614e+02 1.1007646815966924e+01 0.0000000000000000e+00 0 0 0
10 1 2.0480744266742124e+02 -1.9964278885851229e+02 0.0000000000000000e+00 0 0 0
11 1 1.4372950914199174e+02 3.8029616816391886e+01 0.0000000000000000e+00 0 0 0
12 1 1.1095989453501400e+02 -9.2903323241300569e+01 0.0000000000000000e+00 0 0 0
13 1 -2.3210215420631280e+02 -8.6966391123305002e+01 0.0000000000000000e+00 0 0 0
14 1 1.5424944554206422e+02 2.8208385676359633e+01 0.0000000000000000e+00 0 0 0
15 1 4.6210048174818446e+01 8.4326359780716160e+01 0.0000000000000000e+00 0 0 0
16 1 -2.2824067289875208e+02 -3.8615416217681407e+01 0.0000000000000000e+00 0 0 0
17 1 -1.2386074739896044e+02 -2.1050556966790714e+02 0.0000000000000000e+00 0 0 0
18 1 1.3621744292205074e+02 -1.1031773475335984e+02 0.0000000000000000e+00 0 0 0
19 1 1.4152691123715272e+02 1.8051394120263774e+02 0.0000000000000000e+00 0 0 0
20 1 -1.5280023269338889e+02 -3.8434248326169225e+01 0.0000000000000000e+00 0 0 0
21 1 2.1296390012169269e+02 -8.9888425557216095e+01 0.0000000000000000e+00 0 0 0
22 1 -4.0021165197510030e+01 2.5323434923474341e+01 0.0000000000000000e+00 0 0 0
23 1 -2.4658879969680449e+01 8.0613555807166179e+01 0.0000000000000000e+00 0 0 0
24 1 4.4176293530619702e+01 -6.8186717129466672e+01 0.0000000000000000e+00 0 0 0
25 1 2.3213917959412608e+01 -7.5375136807757627e+01 0.0000000000000000e+00 0 0 0
26 1 3.5331880696864964e+01 1.5022835456291750e+02 0.0000000000000000e+00 0 0 0
27 1 -9.8109345576150574e+01 5.6390501967053744e+01 0.0000000000000000e+00 0 0 0
28 1 7.2647775661518850e+01 1.5878435402905722e+00 0.0000000000000000e+00 0 0 0
29 1 -1.6704085221206111e+02 -1.0384885984538879e+02 0.0000000000000000e+00 0 0 0
30 1 -6.4375175437891244e+01 -3.0247717173422666e+02 0.0000000000000000e+00 0 0 0
31 1 -6.4643053266033860e+01 -1.8468419747758261e+02 0.0000000000000000e+00 0 0 0
32 1 -4.1404223371868348e+01 -4.2522259771210758e+00 0.0000000000000000e+00 0 0 0

Velocities

1 -8.9712468118670220e-03 -3.4483113072877202e-04 0.0000000000000000e+00
2 1.1704589416205223e-03 -1.4107756982140160e-02 0.0000000000000000e+00
3 -4.3694621041616708e-03 1.0820689556608157e-02 0.0000000000000000e+00
4 -1.7942140014767086e-02 2.1561990215907827e-03 0.0000000000000000e+00
5 -3.0468716842050351e-03 1.2747842745673593e-02 0.0000000000000000e+00
6 7.9698136080033309e-03 4.1261495219978806e-03 0.0000000000000000e+00
7 5.9858866703123535e-03 7.7373968324136169e-03 0.0000000000000000e+00
8 1.8047055558314672e-02 -1.5807263552214571e-02 0.0000000000000000e+00
9 1.2310637220005628e-02 -4.6144501728936629e-03 0.0000000000000000e+00
10 1.9878846656472347e-02 -8.8061259219524828e-03 0.0000000000000000e+00
11 -1.1988375566084569e-02 -1.0930198708003892e-03 0.0000000000000000e+00
12 -1.8839315270539617e-02 -1.4734079153553986e-02 0.0000000000000000e+00
13 2.4878486722388822e-03 -1.9220164077064714e-02 0.0000000000000000e+00
14 -6.4370340770245052e-03 -2.2700368143510504e-02 0.0000000000000000e+00
15 2.4115016730228834e-03 7.6787291669356168e-03 0.0000000000000000e+00
16 1.7732047257565324e-02 -1.2723355054254761e-02 0.0000000000000000e+00
17 -9.0787047220220547e-04 9.0515537010055231e-03 0.0000000000000000e+00
18 -5.2956625597084597e-03 -9.8770748089479989e-04 0.0000000000000000e+00
19 1.0707345569556950e-02 -1.4363292332504119e-02 0.0000000000000000e+00
20 1.0785698732244900e-02 2.4505101833992272e-02 0.0000000000000000e+00
21 1.9160528733558991e-02 2.1436522861417897e-03 0.0000000000000000e+00
22 1.9863951106259365e-03 -2.0995988793628486e-02 0.0000000000000000e+00
23 1.0883274393209015e-03 -3.1922529892223050e-02 0.0000000000000000e+00
24 -2.0693501840446292e-02 -7.4942681743120050e-03 0.0000000000000000e+00
25 -2.9178889588679243e-03 -2.4748904556084306e-02 0.0000000000000000e+00
26 1.1346151339979306e-02 2.0214184012252338e-02 0.0000000000000000e+00
27 -1.3621090235183750e-02 1.2634109263858932e-02 0.0000000000000000e+00
28 -4.8151904584971860e-03 8.7805099489370562e-03 0.0000000000000000e+00
29 -9.9532373367261021e-03 2.6093616843912086e-02 0.0000000000000000e+00
30 1.2115217499683492e-02 -7.4575626218080027e-03 0.0000000000000000e+00
31 1.0627675705101479e-02 1.7685049506216254e-02 0.0000000000000000e+00
32 1.1552045093478952e-02 -3.3984171563886563e-02 0.0000000000000000e+00
