LAMMPS data file via write_data, version 29 Mar 2019, timestep = 20000000

32 atoms
1 atom types

-1.5000000000000000e+03 1.5000000000000000e+03 xlo xhi
-1.5000000000000000e+03 1.5000000000000000e+03 ylo yhi
-1.5000000000000000e+03 1.5000000000000000e+03 zlo zhi

Masses

1 0.00054858

Pair Coeffs # gauss/cut

1 0.0118479 0 33.6721

Atoms # atomic

1 1 -1.0032818770246396e+02 6.8494730582369513e+01 0.0000000000000000e+00 0 0 0
2 1 1.1205155855334500e+01 2.7433986373209098e+01 0.0000000000000000e+00 0 0 0
3 1 6.5124261355931935e+01 5.0335556363238450e+00 0.0000000000000000e+00 0 0 0
4 1 -6.9864408264012937e+01 -2.8793363044516006e+01 0.0000000000000000e+00 0 0 0
5 1 -1.2217312164796229e+02 -1.4075539432839710e+02 0.0000000000000000e+00 0 0 0
6 1 -1.7139352902991868e+02 -3.2215926621199593e+01 0.0000000000000000e+00 0 0 0
7 1 1.2093848378219923e+02 -8.5339113875552229e+01 0.0000000000000000e+00 0 0 0
8 1 2.1509766991705813e+01 -1.0793653311099726e+02 0.0000000000000000e+00 0 0 0
9 1 3.0606536583533789e+01 -6.6228094674700600e+01 0.0000000000000000e+00 0 0 0
10 1 -1.3686421393666745e+02 2.1785348729699410e+02 0.0000000000000000e+00 0 0 0
11 1 4.8213993758158445e+01 1.0692992268139469e+02 0.0000000000000000e+00 0 0 0
12 1 -5.0917944400610018e+01 -7.1345014247671514e+01 0.0000000000000000e+00 0 0 0
13 1 -2.8840705254852416e+01 -5.2793602743608993e+01 0.0000000000000000e+00 0 0 0
14 1 -5.4715560370126411e+01 -8.1227749103323418e+01 0.0000000000000000e+00 0 0 0
15 1 -9.5940031377738563e+01 -6.8269241768811668e+01 0.0000000000000000e+00 0 0 0
16 1 1.4928589459258635e+02 5.9103604785355870e+01 0.0000000000000000e+00 0 0 0
17 1 -2.1090204217822727e+01 1.3756173201926117e+02 0.0000000000000000e+00 0 0 0
18 1 2.9170361093619846e+01 1.5559925250775765e+02 0.0000000000000000e+00 0 0 0
19 1 -2.8474941410755456e+01 -2.8066956487321328e+01 0.0000000000000000e+00 0 0 0
20 1 -1.8853074401488684e+02 3.4125817532397896e+01 0.0000000000000000e+00 0 0 0
21 1 -9.8296509961630036e+01 -1.6246068593483815e+02 0.0000000000000000e+00 0 0 0
22 1 3.3180701977247821e+01 4.5115813988151722e+01 0.0000000000000000e+00 0 0 0
23 1 -1.2822027952408357e+01 7.7643886984821918e+01 0.0000000000000000e+00 0 0 0
24 1 -5.3423126388997019e+01 -2.3820939097278089e+01 0.0000000000000000e+00 0 0 0
25 1 1.0326435612357841e+02 1.9738471960561625e+02 0.0000000000000000e+00 0 0 0
26 1 1.4041110557205300e+02 1.1772723728562591e+01 0.0000000000000000e+00 0 0 0
27 1 -1.7098741664935108e+02 3.3599891122426662e+01 0.0000000000000000e+00 0 0 0
28 1 7.4347285639836599e+01 -2.3022731144750562e+01 0.0000000000000000e+00 0 0 0
29 1 1.8770861062206461e+02 -2.4721001092289487e+01 0.0000000000000000e+00 0 0 0
30 1 1.5057856830026680e+02 9.2236646646828731e+01 0.0000000000000000e+00 0 0 0
31 1 1.0225772930437955e+02 -7.4475693053534499e+01 0.0000000000000000e+00 0 0 0
32 1 1.9068670080535995e+01 2.7516569878689584e+01 0.0000000000000000e+00 0 0 0

Velocities

1 -3.2831733428915766e-02 -5.3069529781147450e-02 0.0000000000000000e+00
2 2.5744255670815595e-02 1.8312687819705124e-02 0.0000000000000000e+00
3 -4.1623642310632657e-03 1.0710876481977755e-03 0.0000000000000000e+00
4 7.0844441001904745e-03 5.8240385640084477e-03 0.0000000000000000e+00
5 6.0145914339757396e-03 6.5261598892721404e-03 0.0000000000000000e+00
6 -2.1021134480226503e-03 1.6364200856963638e-02 0.0000000000000000e+00
7 1.5509491124070891e-02 1.4262019911228453e-02 0.0000000000000000e+00
8 1.5858172236046703e-02 1.5884853266175294e-03 0.0000000000000000e+00
9 -1.9236872730208560e-03 -5.7333069867148501e-03 0.0000000000000000e+00
10 -2.8717286779291199e-02 -6.6960074789188815e-03 0.0000000000000000e+00
11 1.3384269959138525e-02 -7.2248380931544988e-03 0.0000000000000000e+00
12 -1.2507327697407552e-02 7.2532406462662621e-03 0.0000000000000000e+00
13 9.7979118525295533e-03 8.4237496892437171e-03 0.0000000000000000e+00
14 3.1581125529218236e-03 1.9110127106453784e-02 0.0000000000000000e+00
15 2.4128819723329985e-02 6.5347392967684877e-03 0.0000000000000000e+00
16 7.4728968717947949e-03 -3.9304898837205279e-03 0.0000000000000000e+00
17 -1.5923205639937491e-02 -6.5841246210761864e-03 0.0000000000000000e+00
18 2.1767916547043107e-02 7.1409967511922821e-03 0.0000000000000000e+00
19 2.5559206866878501e-02 8.4786227773065159e-03 0.0000000000000000e+00
20 -4.2334147979749610e-02 -2.4322575089591198e-02 0.0000000000000000e+00
21 -2.1273369088649498e-02 7.3616719008408023e-05 0.0000000000000000e+00
22 1.0784096797467998e-02 -9.7523531886396873e-03 0.0000000000000000e+00
23 -1.2443935731646200e-02 -1.6969037507691926e-02 0.0000000000000000e+00
24 -3.0376499610835033e-02 -3.7135979325611627e-03 0.0000000000000000e+00
25 -2.3612234347029300e-02 -4.8275610710261756e-04 0.0000000000000000e+00
26 -1.8108851450475007e-02 2.1968460571162831e-02 0.0000000000000000e+00
27 3.2457080496675283e-02 5.8318429420635256e-03 0.0000000000000000e+00
28 -1.5483335688433266e-02 -1.4414091927284682e-02 0.0000000000000000e+00
29 1.4345542521440768e-02 -2.2278289056366148e-02 0.0000000000000000e+00
30 -5.4189957115943323e-03 4.5800759869310918e-02 0.0000000000000000e+00
31 -4.6256451549752655e-03 -1.6676832813742912e-02 0.0000000000000000e+00
32 -8.6415265202941984e-03 -1.7587790295494270e-02 0.0000000000000000e+00
