LAMMPS data file via write_data, version 29 Mar 2019, timestep = 20000000

32 atoms
1 atom types

-1.5000000000000000e+03 1.5000000000000000e+03 xlo xhi
-1.5000000000000000e+03 1.5000000000000000e+03 ylo yhi
-1.5000000000000000e+03 1.5000000000000000e+03 zlo zhi

Masses

1 0.00054858

Pair Coeffs # gauss/cut

1 0.0355436 0 33.6721

Atoms # atomic

1 1 3.5626217899126732e+02 8.0678704907070198e+01 0.0000000000000000e+00 0 0 0
2 1 -1.5550905823158249e+02 1.9090339150921901e+02 0.0000000000000000e+00 0 0 0
3 1 2.1482517290374897e+01 -3.5038470864672220e+01 0.0000000000000000e+00 0 0 0
4 1 1.2951634286858965e+01 2.0615584458822431e+02 0.0000000000000000e+00 0 0 0
5 1 4.3011643350490466e+01 1.1925201514702113e+02 0.0000000000000000e+00 0 0 0
6 1 -1.7823416864977898e+02 9.0567708131938858e+01 0.0000000000000000e+00 0 0 0
7 1 1.7181413179399101e+02 9.8682723825100112e+01 0.0000000000000000e+00 0 0 0
8 1 -4.1463809805653938e+01 -9.4286987431819568e+01 0.0000000000000000e+00 0 0 0
9 1 -7.2437336747159634e+01 -9.8060269562872293e+01 0.0000000000000000e+00 0 0 0
10 1 1.5814199657636911e+02 -1.1755553026067791e+02 0.0000000000000000e+00 0 0 0
11 1 1.6483004192105452e+02 2.4482837460198159e+01 0.0000000000000000e+00 0 0 0
12 1 -6.1375901058420141e+01 4.6929107622576346e+01 0.0000000000000000e+00 0 0 0
13 1 -1.7157011154247283e+02 -1.2850043770396576e+02 0.0000000000000000e+00 0 0 0
14 1 2.3951550895805215e+02 7.1438312885147383e+01 0.0000000000000000e+00 0 0 0
15 1 -1.5590621626862693e+02 -1.7717715944882453e+00 0.0000000000000000e+00 0 0 0
16 1 -8.2463954294475794e+00 -5.7792254235086432e+01 0.0000000000000000e+00 0 0 0
17 1 -1.1496852430977489e+02 -1.7117039879195846e+02 0.0000000000000000e+00 0 0 0
18 1 1.5819148102869519e+02 -1.6982446527455787e+02 0.0000000000000000e+00 0 0 0
19 1 2.1867945300091918e+01 1.1764290700183594e+02 0.0000000000000000e+00 0 0 0
20 1 1.5557545148811121e+02 -4.5143641370931412e+01 0.0000000000000000e+00 0 0 0
21 1 4.0932467183797549e+01 -1.2893891382767617e+02 0.0000000000000000e+00 0 0 0
22 1 1.5834392858624591e+02 1.7948345703963079e+02 0.0000000000000000e+00 0 0 0
23 1 -5.1494013175460701e+01 1.0144196613328504e+00 0.0000000000000000e+00 0 0 0
24 1 2.6312137601682576e+02 7.8176133343707512e+00 0.0000000000000000e+00 0 0 0
25 1 -2.5347943503915914e+01 -1.0194728627886511e+02 0.0000000000000000e+00 0 0 0
26 1 -9.5366711032885959e+01 4.5508789748353236e+00 0.0000000000000000e+00 0 0 0
27 1 7.5927342301261147e-01 1.2723321561418553e+02 0.0000000000000000e+00 0 0 0
28 1 2.7923497720131248e+01 -6.0641412150962047e+01 0.0000000000000000e+00 0 0 0
29 1 -1.7067580308137227e+02 -5.6874539451405582e+01 0.0000000000000000e+00 0 0 0
30 1 -7.3254852723985081e+01 -1.8772801730523696e+02 0.0000000000000000e+00 0 0 0
31 1 8.6381723928750645e+01 -8.6745848273853923e+01 0.0000000000000000e+00 0 0 0
32 1 -9.0391067272368787e+01 1.3218725204165284e+02 0.0000000000000000e+00 0 0 0

Velocities

1 -4.1413435411988301e-03 1.4115586021306773e-02 0.0000000000000000e+00
2 1.1237950820643576e-02 -3.3999121380857061e-02 0.0000000000000000e+00
3 1.8719164166848272e-03 5.4480048491894265e-03 0.0000000000000000e+00
4 -2.6850162254851265e-02 2.0353743808954595e-02 0.0000000000000000e+00
5 1.0374683351884469e-02 1.1534181537676273e-02 0.0000000000000000e+00
6 -5.3630378972271547e-03 -3.0527363319711322e-02 0.0000000000000000e+00
7 1.4267916189283853e-02 -1.2622590074251046e-02 0.0000000000000000e+00
8 8.3314893709053803e-03 -2.5804874843686466e-04 0.0000000000000000e+00
9 2.6941739090348117e-02 6.1492973901502313e-03 0.0000000000000000e+00
10 1.4400831033357079e-02 -1.0090866245036181e-03 0.0000000000000000e+00
11 -1.1150591465457837e-02 1.8231912614260348e-05 0.0000000000000000e+00
12 -7.2153887898319400e-03 -7.5710111126804595e-03 0.0000000000000000e+00
13 9.8855368023771460e-03 4.5820166588605672e-03 0.0000000000000000e+00
14 -6.8300622362697013e-03 6.6599063608547473e-03 0.0000000000000000e+00
15 -1.3846427715253955e-02 -2.7661395805802505e-03 0.0000000000000000e+00
16 -8.5144349006778565e-03 4.3738235505447892e-02 0.0000000000000000e+00
17 -9.2229242907180906e-03 3.3920002825072348e-02 0.0000000000000000e+00
18 -4.7709727515412338e-03 -1.8642009566481423e-03 0.0000000000000000e+00
19 1.6640043362568389e-02 -1.9677117405629694e-02 0.0000000000000000e+00
20 -1.0127637209454714e-03 2.2531276404274925e-02 0.0000000000000000e+00
21 9.4697401336766573e-03 -1.5754836667738636e-02 0.0000000000000000e+00
22 -1.1581758403891671e-03 2.8515711285514719e-02 0.0000000000000000e+00
23 -5.1101057016696818e-03 6.7819050977186972e-03 0.0000000000000000e+00
24 -6.2255025921929448e-03 5.2868485503779761e-03 0.0000000000000000e+00
25 8.1875281782794046e-03 -1.2194193255795403e-02 0.0000000000000000e+00
26 -3.5233141946541570e-02 -2.8258919117255393e-02 0.0000000000000000e+00
27 5.8359652279339801e-04 -1.8112631378465166e-02 0.0000000000000000e+00
28 3.7552386712125098e-03 -1.9805633907155704e-03 0.0000000000000000e+00
29 -7.2925086672402739e-03 -2.6678814316433805e-02 0.0000000000000000e+00
30 1.0671572555692278e-02 9.1629259927675268e-03 0.0000000000000000e+00
31 1.8130838419452754e-02 -2.7869285315791606e-03 0.0000000000000000e+00
32 1.6822901795605309e-03 -2.3763446725021696e-02 0.0000000000000000e+00
