LAMMPS data file via write_data, version 29 Mar 2019, timestep = 20000000

32 atoms
1 atom types

-1.5000000000000000e+03 1.5000000000000000e+03 xlo xhi
-1.5000000000000000e+03 1.5000000000000000e+03 ylo yhi
-1.5000000000000000e+03 1.5000000000000000e+03 zlo zhi

Masses

1 0.00054858

Pair Coeffs # gauss/cut

1 0.0355436 0 33.6721

Atoms # atomic

1 1 2.1211191402143263e+02 8.8239044680302229e+01 0.0000000000000000e+00 0 0 0
2 1 -8.2500789821470221e+01 1.3563961221088610e+02 0.0000000000000000e+00 0 0 0
3 1 7.7343211687592827e+01 1.3379613951460840e+02 0.0000000000000000e+00 0 0 0
4 1 -1.0045231351666855e+01 -1.3137696929505598e+01 0.0000000000000000e+00 0 0 0
5 1 4.4632963864193108e+01 9.9483463538968977e+01 0.0000000000000000e+00 0 0 0
6 1 -7.5928803495787847e+01 3.4844485794808243e+01 0.0000000000000000e+00 0 0 0
7 1 -1.8325524365212672e+02 1.2199870832399452e+02 0.0000000000000000e+00 0 0 0
8 1 -7.4468371107341042e+01 -5.4255089135458249e+01 0.0000000000000000e+00 0 0 0
9 1 -1.2830211647539252e+02 -2.1984948012843549e+02 0.0000000000000000e+00 0 0 0
10 1 1.6233082550448326e+01 -1.4543457776489015e+02 0.0000000000000000e+00 0 0 0
11 1 1.4122002518867194e+02 -1.1769672885191744e+02 0.0000000000000000e+00 0 0 0
12 1 1.1047563532417151e+02 6.5763935264329341e+00 0.0000000000000000e+00 0 0 0
13 1 -1.1198840745791972e+02 1.2051849493990329e+02 0.0000000000000000e+00 0 0 0
14 1 6.7868661698919396e+01 1.0450952223090425e+02 0.0000000000000000e+00 0 0 0
15 1 3.0016854080277699e+02 2.6210712297854787e+01 0.0000000000000000e+00 0 0 0
16 1 -1.0307625997340544e+01 -1.6927441851806620e+01 0.0000000000000000e+00 0 0 0
17 1 1.7973026994212738e+01 -8.3477544317266705e+01 0.0000000000000000e+00 0 0 0
18 1 7.3449499527022198e+01 -1.7647849434573757e+02 0.0000000000000000e+00 0 0 0
19 1 1.2824574737306312e+02 -6.3208861522519918e+01 0.0000000000000000e+00 0 0 0
20 1 -3.5092902313994834e+01 1.7856491582193186e+02 0.0000000000000000e+00 0 0 0
21 1 2.0012539856876305e+02 -4.1106388118470171e+01 0.0000000000000000e+00 0 0 0
22 1 4.9584730125390422e+01 -4.4301505310936207e+01 0.0000000000000000e+00 0 0 0
23 1 -1.0363228732357989e+02 4.8552376865685488e+01 0.0000000000000000e+00 0 0 0
24 1 -2.7544388402779955e+01 1.9909961198108181e+02 0.0000000000000000e+00 0 0 0
25 1 1.6372348223571700e+02 8.6010969638478855e+01 0.0000000000000000e+00 0 0 0
26 1 -4.7776088948723654e+01 -5.5678579566285784e+01 0.0000000000000000e+00 0 0 0
27 1 -1.6722184341739020e+02 -1.3838507673503791e+01 0.0000000000000000e+00 0 0 0
28 1 2.3381955765958107e+01 9.2973239912758530e+01 0.0000000000000000e+00 0 0 0
29 1 -3.8738245111678722e+01 -7.5146175994056080e+01 0.0000000000000000e+00 0 0 0
30 1 -2.3798618417724569e+02 -8.1482370669444592e+01 0.0000000000000000e+00 0 0 0
31 1 -1.1555521273317179e+01 -1.3511948344594794e+02 0.0000000000000000e+00 0 0 0
32 1 1.1182239483402935e+02 -4.5326299920423772e+01 0.0000000000000000e+00 0 0 0

Velocities

1 -4.5100355631538425e-01 3.3812735484574163e-01 0.0000000000000000e+00
2 -2.2459288615701106e-01 4.7345038642809767e-01 0.0000000000000000e+00
3 2.7191752911761652e-01 4.8105412048612115e-04 0.0000000000000000e+00
4 -1.2334911483969628e-01 -7.3768650569124683e-02 0.0000000000000000e+00
5 8.9918348728450170e-02 -4.3290857696303792e-01 0.0000000000000000e+00
6 4.4427845221283423e-02 -2.9825775618121897e-01 0.0000000000000000e+00
7 -1.0808138388771159e-01 1.2888215349531304e-01 0.0000000000000000e+00
8 2.7112329415043018e-01 -9.6367728039817788e-02 0.0000000000000000e+00
9 1.5187072002917938e-02 -2.9471638310210641e-01 0.0000000000000000e+00
10 3.1297912765906898e-02 4.1425199241227717e-01 0.0000000000000000e+00
11 -1.2108368099202831e-01 1.2195620981047979e-03 0.0000000000000000e+00
12 2.3701367354177194e-01 3.7745659490642208e-01 0.0000000000000000e+00
13 2.7387511899327444e-01 3.1362132971258938e-01 0.0000000000000000e+00
14 2.0178649833056375e-01 1.6181515056792697e-01 0.0000000000000000e+00
15 -1.4989120535171144e-01 -7.3205726385496536e-02 0.0000000000000000e+00
16 -2.5883940786715826e-02 1.6451595753177439e-01 0.0000000000000000e+00
17 1.3993667389047146e-01 2.1788655779320534e-01 0.0000000000000000e+00
18 5.2382543138527679e-02 -1.9995082979183770e-01 0.0000000000000000e+00
19 2.3072032757824962e-01 9.7006088040792540e-02 0.0000000000000000e+00
20 -2.4381210111343640e-01 8.4274155398165129e-02 0.0000000000000000e+00
21 1.8292764917160181e-01 1.4480308948455631e-01 0.0000000000000000e+00
22 -4.0973295101120700e-03 -7.9630448929841890e-02 0.0000000000000000e+00
23 -3.1201040568240873e-01 1.5060765986991936e-01 0.0000000000000000e+00
24 -3.9391303155628464e-02 -8.9754541443076430e-02 0.0000000000000000e+00
25 -2.8046229175430665e-01 -8.1318205366372243e-02 0.0000000000000000e+00
26 -4.8548775810415848e-02 1.5956453546946436e-01 0.0000000000000000e+00
27 2.7228049568495710e-01 2.1195314314996147e-01 0.0000000000000000e+00
28 -2.7529091487014243e-02 -1.2634231021831710e-01 0.0000000000000000e+00
29 1.2300703257605256e-01 2.5445415085777853e-02 0.0000000000000000e+00
30 5.4090406771550630e-02 -2.0484182641054928e-02 0.0000000000000000e+00
31 3.9181890166191634e-02 1.0678600638649269e-01 0.0000000000000000e+00
32 -1.2268735578670742e-01 -2.7122303439031980e-03 0.0000000000000000e+00
