LAMMPS data file via write_data, version 29 Mar 2019, timestep = 20000000

32 atoms
1 atom types

-1.5000000000000000e+03 1.5000000000000000e+03 xlo xhi
-1.5000000000000000e+03 1.5000000000000000e+03 ylo yhi
-1.5000000000000000e+03 1.5000000000000000e+03 zlo zhi

Masses

1 0.00054858

Pair Coeffs # gauss/cut

1 0.0118479 0 33.6721

Atoms # atomic

1 1 -2.1899973931253680e+01 7.3825031101265481e+01 0.0000000000000000e+00 0 0 0
2 1 7.8307962009459757e+01 -7.7592883751910747e+01 0.0000000000000000e+00 0 0 0
3 1 1.4194757898809812e+02 -3.4699278691859817e+01 0.0000000000000000e+00 0 0 0
4 1 -4.8544609279746300e+00 -9.0127317708299746e+00 0.0000000000000000e+00 0 0 0
5 1 2.0868195137324332e+01 -1.5632220963916475e+02 0.0000000000000000e+00 0 0 0
6 1 -8.7788457966151725e+01 2.5097058485224302e+01 0.0000000000000000e+00 0 0 0
7 1 -2.8102379424680073e+01 7.6281486909731939e+01 0.0000000000000000e+00 0 0 0
8 1 1.2655497691929675e+02 -6.6073674599440025e+01 0.0000000000000000e+00 0 0 0
9 1 -3.4235924587958678e+01 -1.5899338418743361e+02 0.0000000000000000e+00 0 0 0
10 1 -1.2495356368322572e+02 1.4901700481635601e+02 0.0000000000000000e+00 0 0 0
11 1 5.6665870483677928e+01 7.5575536174515236e+01 0.0000000000000000e+00 0 0 0
12 1 -3.3867395902396758e+01 4.2174697372488666e+01 0.0000000000000000e+00 0 0 0
13 1 1.6848075168978460e+02 -6.4536209733585181e+01 0.0000000000000000e+00 0 0 0
14 1 -1.1575448797463669e+02 -9.5740780981994735e+00 0.0000000000000000e+00 0 0 0
15 1 -1.9446213280568125e+02 -1.7222347603937314e+00 0.0000000000000000e+00 0 0 0
16 1 8.6341358575335704e+01 -1.8784872381918967e+02 0.0000000000000000e+00 0 0 0
17 1 2.4795873530796888e+02 5.8607316282323673e+01 0.0000000000000000e+00 0 0 0
18 1 -7.9782268117110879e+00 8.2759563117185664e+01 0.0000000000000000e+00 0 0 0
19 1 9.6196514304582720e+01 1.0533019045910756e+02 0.0000000000000000e+00 0 0 0
20 1 -8.4106498667485653e+01 -1.1693105655002631e+01 0.0000000000000000e+00 0 0 0
21 1 -1.9443627736137426e+01 1.8300741818462959e+02 0.0000000000000000e+00 0 0 0
22 1 -3.0034779972536207e+01 -1.1172712897970021e+02 0.0000000000000000e+00 0 0 0
23 1 -1.5697853350250028e+02 8.3479224484637371e+01 0.0000000000000000e+00 0 0 0
24 1 -2.2052455007601427e+01 -1.1237851761764819e+01 0.0000000000000000e+00 0 0 0
25 1 5.1019665561148692e+01 1.6694762631742901e+02 0.0000000000000000e+00 0 0 0
26 1 -3.5381485911684521e+01 -4.2011777018298901e+01 0.0000000000000000e+00 0 0 0
27 1 -1.4517387865024014e+01 1.6653414084739742e+00 0.0000000000000000e+00 0 0 0
28 1 2.2465702409451760e+00 -4.0164029822312870e+01 0.0000000000000000e+00 0 0 0
29 1 9.3051771286357706e+01 1.6972668558620566e+02 0.0000000000000000e+00 0 0 0
30 1 1.5186178416933748e+02 2.9619286489338190e+01 0.0000000000000000e+00 0 0 0
31 1 1.7297642626114060e+02 -1.2404101002220585e+02 0.0000000000000000e+00 0 0 0
32 1 -9.2045587706417095e+01 2.4397450917456570e+02 0.0000000000000000e+00 0 0 0

Velocities

1 1.5254885559962791e-01 4.3149323252647281e-02 0.0000000000000000e+00
2 -8.1596766149331770e-02 4.2635863643447916e-02 0.0000000000000000e+00
3 7.8224805374146861e-02 1.3528771824200517e-01 0.0000000000000000e+00
4 -4.1308165497661073e-02 1.9660531101696821e-01 0.0000000000000000e+00
5 4.3611990208880541e-02 -1.0872457013102460e-02 0.0000000000000000e+00
6 8.1573487321439347e-02 5.1025326170214547e-02 0.0000000000000000e+00
7 -2.3852039534610664e-01 -7.0039558341601957e-02 0.0000000000000000e+00
8 -6.9372390897164057e-02 -1.3589414773506775e-01 0.0000000000000000e+00
9 -1.2478787694933925e-02 -3.8444467314603138e-02 0.0000000000000000e+00
10 3.3070457821906610e-02 2.4479533690470880e-02 0.0000000000000000e+00
11 -8.7918284826484488e-03 4.7051020304123862e-03 0.0000000000000000e+00
12 4.6432281879267033e-02 2.3844355558736829e-02 0.0000000000000000e+00
13 1.8600059158116886e-02 -1.5242832280197441e-01 0.0000000000000000e+00
14 -1.1888932916919535e-02 1.9757482860476891e-02 0.0000000000000000e+00
15 2.3764559536765029e-02 4.5477799245392088e-02 0.0000000000000000e+00
16 3.8478730695995236e-02 2.6838793556645903e-02 0.0000000000000000e+00
17 -4.6678924243824027e-02 1.0143836229180572e-01 0.0000000000000000e+00
18 1.4772533807590901e-01 2.7062793603662958e-02 0.0000000000000000e+00
19 8.8950499081970388e-03 -2.2516538119586094e-02 0.0000000000000000e+00
20 -5.2279048109636878e-02 8.7201672211276712e-02 0.0000000000000000e+00
21 -1.3308271373380964e-01 -5.0743872612230047e-02 0.0000000000000000e+00
22 -1.9661608373442798e-02 1.2816326173068594e-02 0.0000000000000000e+00
23 7.2539647567628276e-03 -1.5376309455756420e-02 0.0000000000000000e+00
24 -5.9720549839076065e-03 -1.1540543942748303e-02 0.0000000000000000e+00
25 7.3861611676781888e-02 -1.0769173216640908e-01 0.0000000000000000e+00
26 -7.5387134615954865e-02 -4.4656765280603909e-02 0.0000000000000000e+00
27 1.2450094860480751e-01 2.1568853138658899e-02 0.0000000000000000e+00
28 1.5516160223612083e-01 -3.0308741191515030e-02 0.0000000000000000e+00
29 6.9338108652441915e-02 -1.8930567780357326e-02 0.0000000000000000e+00
30 -9.2425904416655089e-02 -2.1695853762816355e-03 0.0000000000000000e+00
31 -1.9914776181441196e-01 -1.8873231887684781e-02 0.0000000000000000e+00
32 -3.8405261543146628e-02 6.1762525570144063e-02 0.0000000000000000e+00
