LAMMPS data file via write_data, version 29 Mar 2019, timestep = 20000000

32 atoms
1 atom types

-1.5000000000000000e+03 1.5000000000000000e+03 xlo xhi
-1.5000000000000000e+03 1.5000000000000000e+03 ylo yhi
-1.5000000000000000e+03 1.5000000000000000e+03 zlo zhi

Masses

1 0.00054858

Pair Coeffs # gauss/cut

1 0.0355436 0 33.6721

Atoms # atomic

1 1 1.3428136201923277e+02 1.2154383206471995e+02 0.0000000000000000e+00 0 0 0
2 1 -8.4079835089783572e+01 2.0928378608900587e+02 0.0000000000000000e+00 0 0 0
3 1 4.8192895026025674e+01 7.1343356901704482e+01 0.0000000000000000e+00 0 0 0
4 1 -3.9911270235239442e+01 1.8528788838884623e+01 0.0000000000000000e+00 0 0 0
5 1 7.6277810387059418e+01 -2.1870948107373813e+01 0.0000000000000000e+00 0 0 0
6 1 -4.4322485454745376e+01 1.6311019941066138e+02 0.0000000000000000e+00 0 0 0
7 1 -1.4973843079066825e+02 1.2718520661636367e+02 0.0000000000000000e+00 0 0 0
8 1 -1.4075877148301356e+02 -4.4268782611546442e+01 0.0000000000000000e+00 0 0 0
9 1 -1.5703133478258715e+02 -2.1335866903226207e+02 0.0000000000000000e+00 0 0 0
10 1 5.0056330302362987e+01 -1.1781379664264941e+02 0.0000000000000000e+00 0 0 0
11 1 2.0566995852679352e+02 -6.3262911631148540e+01 0.0000000000000000e+00 0 0 0
12 1 1.4428024406222804e+02 3.3660818608097216e+01 0.0000000000000000e+00 0 0 0
13 1 -1.0579909889090544e+02 5.5804102747228850e+00 0.0000000000000000e+00 0 0 0
14 1 1.0307159415894195e+02 1.6672010938161287e+02 0.0000000000000000e+00 0 0 0
15 1 2.6499121383946664e+02 1.0481968835880645e+01 0.0000000000000000e+00 0 0 0
16 1 -3.1330573174580252e+01 4.6847388726721185e+01 0.0000000000000000e+00 0 0 0
17 1 3.1896812163614769e+01 -8.4969007335231140e+01 0.0000000000000000e+00 0 0 0
18 1 3.7478646133883487e+01 -1.6873604957839370e+02 0.0000000000000000e+00 0 0 0
19 1 2.2223380888922156e+02 -8.5866348628743111e+01 0.0000000000000000e+00 0 0 0
20 1 1.6003436051219715e+01 1.8880480539683964e+02 0.0000000000000000e+00 0 0 0
21 1 1.0749969750043489e+02 -6.9998511527455776e+01 0.0000000000000000e+00 0 0 0
22 1 -4.2914173167125220e+01 -2.3332309493702247e+01 0.0000000000000000e+00 0 0 0
23 1 -2.0367651795898175e+02 5.2964273848975736e+01 0.0000000000000000e+00 0 0 0
24 1 -2.7858238274838076e+01 9.9427964910669616e+01 0.0000000000000000e+00 0 0 0
25 1 1.3477626947357447e+02 8.5642726602904489e+01 0.0000000000000000e+00 0 0 0
26 1 4.7541599926272063e+01 7.0940544324303021e+00 0.0000000000000000e+00 0 0 0
27 1 -2.2175957845065903e+02 -1.3027825483257061e+02 0.0000000000000000e+00 0 0 0
28 1 6.8534803649729938e+01 4.4894268798520137e+01 0.0000000000000000e+00 0 0 0
29 1 -5.7126371364270142e+01 -6.9041741722966151e+01 0.0000000000000000e+00 0 0 0
30 1 -1.3367580338522725e+02 -9.8388535879742776e+00 0.0000000000000000e+00 0 0 0
31 1 -1.0932745749947327e+02 -1.8530104346212482e+02 0.0000000000000000e+00 0 0 0
32 1 1.8178465155394122e+02 -1.5698339148887544e+02 0.0000000000000000e+00 0 0 0

Velocities

1 -4.5545029725332871e-02 -7.6287241740213202e-02 0.0000000000000000e+00
2 -8.5795122351747521e-02 -5.8825740184238806e-02 0.0000000000000000e+00
3 -4.4509455924045488e-04 -1.2146911350359488e-02 0.0000000000000000e+00
4 -1.4970476057376747e-02 -6.1342410006933704e-02 0.0000000000000000e+00
5 -8.3497156304522396e-02 -4.5398283173310031e-02 0.0000000000000000e+00
6 2.9223339774449335e-02 -4.3839507573340833e-02 0.0000000000000000e+00
7 -1.5645541842157641e-02 -5.9528734346979903e-02 0.0000000000000000e+00
8 -4.7765598475177640e-02 -6.5915749415446118e-02 0.0000000000000000e+00
9 -5.5114279368550942e-02 -8.8498324712740550e-02 0.0000000000000000e+00
10 -2.3675390464981586e-02 -3.4155120112557689e-02 0.0000000000000000e+00
11 -4.9119704535175029e-02 2.4289793801987435e-02 0.0000000000000000e+00
12 3.3318045945315275e-02 3.6385714995672253e-02 0.0000000000000000e+00
13 -1.9700139963027736e-02 1.1468207843564875e-02 0.0000000000000000e+00
14 2.5329285891051941e-02 -2.9083102303107709e-02 0.0000000000000000e+00
15 9.5268817733455996e-02 -2.8086546394118936e-02 0.0000000000000000e+00
16 5.5631225755391631e-02 -8.7290031794828755e-03 0.0000000000000000e+00
17 7.9022220696515419e-02 -2.5005579973064237e-02 0.0000000000000000e+00
18 1.6370931439332308e-02 5.3636886927264163e-02 0.0000000000000000e+00
19 7.7140034309092748e-02 2.5816318277614679e-02 0.0000000000000000e+00
20 1.7474516035447106e-02 -5.4620943667140626e-02 0.0000000000000000e+00
21 -6.9627758730430381e-02 2.3339559957374086e-02 0.0000000000000000e+00
22 5.9655402249072759e-02 -4.6958241584191741e-02 0.0000000000000000e+00
23 -3.3406270937570232e-02 -9.7139044079648532e-02 0.0000000000000000e+00
24 -3.5741699420006955e-02 -7.4770033685225029e-02 0.0000000000000000e+00
25 5.1886491593919185e-02 1.3370959489374773e-01 0.0000000000000000e+00
26 3.7451082451015173e-02 -5.0024832532852205e-02 0.0000000000000000e+00
27 9.1599523193362273e-02 7.5809302393352457e-02 0.0000000000000000e+00
28 -2.2297792198232538e-04 -9.0808167043667148e-02 0.0000000000000000e+00
29 -6.3112027193060485e-02 5.6529992381878337e-03 0.0000000000000000e+00
30 7.3237710992452828e-03 1.7541388753368487e-02 0.0000000000000000e+00
31 8.9883957682800920e-03 -1.3902330847859745e-02 0.0000000000000000e+00
32 1.1742876729021524e-01 -5.6207182237878239e-02 0.0000000000000000e+00
