LAMMPS data file via write_data, version 29 Mar 2019, timestep = 20000000

32 atoms
1 atom types

-1.5000000000000000e+03 1.5000000000000000e+03 xlo xhi
-1.5000000000000000e+03 1.5000000000000000e+03 ylo yhi
-1.5000000000000000e+03 1.5000000000000000e+03 zlo zhi

Masses

1 0.00054858

Pair Coeffs # gauss/cut

1 0.0355436 0 33.6721

Atoms # atomic

1 1 2.1822934829880441e+02 1.2013878069152909e+02 0.0000000000000000e+00 0 0 0
2 1 -6.2827053168349345e+01 1.8233761235657528e+02 0.0000000000000000e+00 0 0 0
3 1 2.5990379274836485e+01 4.1282964235760197e+01 0.0000000000000000e+00 0 0 0
4 1 -3.0267306978185545e+01 1.2833883942195294e+01 0.0000000000000000e+00 0 0 0
5 1 1.1383146872700058e+02 1.8302367960633981e+02 0.0000000000000000e+00 0 0 0
6 1 -8.2783946963236701e+01 4.4334215043989040e+01 0.0000000000000000e+00 0 0 0
7 1 -1.8658539703780238e+02 2.0564206875111961e+02 0.0000000000000000e+00 0 0 0
8 1 -1.1961329547372811e+01 -4.7673915592233577e+01 0.0000000000000000e+00 0 0 0
9 1 -1.8007458521492524e+02 -1.9011554418516988e+02 0.0000000000000000e+00 0 0 0
10 1 8.4658584301847085e+01 -1.8300147862526174e+02 0.0000000000000000e+00 0 0 0
11 1 1.2438925991004359e+02 -1.0535899606765977e+02 0.0000000000000000e+00 0 0 0
12 1 7.4710076047618770e+01 -1.5335089735065282e+01 0.0000000000000000e+00 0 0 0
13 1 -2.2092482886045397e+02 3.7367960276263602e+01 0.0000000000000000e+00 0 0 0
14 1 1.7535530109239738e+02 6.0315700180613526e+01 0.0000000000000000e+00 0 0 0
15 1 1.8372678218596931e+02 -2.9276011955639305e+01 0.0000000000000000e+00 0 0 0
16 1 -1.2528216788731285e+02 1.0310134028452431e+02 0.0000000000000000e+00 0 0 0
17 1 -3.7310312671377233e+01 -1.6423721312756911e+02 0.0000000000000000e+00 0 0 0
18 1 2.3609058794763742e+00 9.7802993437482186e+00 0.0000000000000000e+00 0 0 0
19 1 1.7260585914041786e+02 4.4889851495965793e+01 0.0000000000000000e+00 0 0 0
20 1 3.3880346684758638e+00 1.5444957215870849e+02 0.0000000000000000e+00 0 0 0
21 1 8.1365805203156256e+01 -3.3129311512187350e+01 0.0000000000000000e+00 0 0 0
22 1 -1.1773458973484692e+02 5.4157076773427164e+01 0.0000000000000000e+00 0 0 0
23 1 -1.4410646496242379e+02 1.0208065301992848e+01 0.0000000000000000e+00 0 0 0
24 1 2.8891487662968384e+01 7.7365501515748250e+01 0.0000000000000000e+00 0 0 0
25 1 3.2477316287457221e+01 5.1493342344082471e+01 0.0000000000000000e+00 0 0 0
26 1 1.6745883649682668e+01 1.5066425304559218e+02 0.0000000000000000e+00 0 0 0
27 1 -2.2389677645629490e+02 -3.0376757114220510e+01 0.0000000000000000e+00 0 0 0
28 1 1.1750787044082361e+02 1.3092926251609646e+02 0.0000000000000000e+00 0 0 0
29 1 -8.7149255332485822e+01 -8.3163394730539324e+01 0.0000000000000000e+00 0 0 0
30 1 4.0219579373563803e+01 -9.5471925258714307e+01 0.0000000000000000e+00 0 0 0
31 1 -6.2099647115981242e+01 -1.2983293139907812e+02 0.0000000000000000e+00 0 0 0
32 1 1.6197879527486757e+02 -1.2409557586678139e+02 0.0000000000000000e+00 0 0 0

Velocities

1 -4.8682462956051185e-02 8.2416334617812535e-05 0.0000000000000000e+00
2 3.9009320052606565e-02 -2.5784540283484987e-02 0.0000000000000000e+00
3 -2.6069058972059068e-02 2.0269370488301450e-02 0.0000000000000000e+00
4 3.7015244185323336e-02 -1.4546803607704401e-02 0.0000000000000000e+00
5 6.7158993897724686e-02 1.8742860772015893e-03 0.0000000000000000e+00
6 3.3169444063191670e-04 -1.2565467875594856e-02 0.0000000000000000e+00
7 -1.4973622818465163e-02 -1.5615797399378074e-03 0.0000000000000000e+00
8 6.2442937216771613e-03 1.2909435573104958e-02 0.0000000000000000e+00
9 2.4158577708604474e-02 -4.0629108398764893e-02 0.0000000000000000e+00
10 -1.0943577904912925e-02 -1.3475164182419779e-03 0.0000000000000000e+00
11 1.3030149079867109e-02 7.1067773971179296e-03 0.0000000000000000e+00
12 2.1428243730200573e-02 1.2763186445054892e-03 0.0000000000000000e+00
13 2.3789127078385213e-03 9.0620605025988794e-03 0.0000000000000000e+00
14 -4.4211591676812465e-03 -9.8784727890740293e-03 0.0000000000000000e+00
15 1.9408164033564192e-02 -1.0228911847454541e-02 0.0000000000000000e+00
16 6.4832220626593755e-05 -1.0869867505162733e-02 0.0000000000000000e+00
17 -1.1056876508164849e-02 1.6818448349756477e-02 0.0000000000000000e+00
18 -5.9774886240994279e-02 -6.9780631782570121e-03 0.0000000000000000e+00
19 1.7924714440355790e-03 -2.0713487361888706e-02 0.0000000000000000e+00
20 1.6111867381060348e-02 -3.0448541373074810e-02 0.0000000000000000e+00
21 4.3334370936484345e-02 -7.4324119259513042e-03 0.0000000000000000e+00
22 2.6655715480569969e-02 1.8476973872104997e-02 0.0000000000000000e+00
23 5.6647761918253913e-03 -1.9975019213382085e-03 0.0000000000000000e+00
24 1.3769451782132272e-02 2.9462188220460196e-02 0.0000000000000000e+00
25 -3.5383877582703033e-02 2.4426579877344878e-02 0.0000000000000000e+00
26 6.1351808154230768e-03 1.4762196616949972e-02 0.0000000000000000e+00
27 1.0124407106201412e-02 -2.8433173393149092e-03 0.0000000000000000e+00
28 4.3994656440760289e-02 2.4882770908961262e-02 0.0000000000000000e+00
29 3.6573246326253819e-02 -1.6611815567088380e-03 0.0000000000000000e+00
30 -8.2498823340882276e-03 4.8201101209255436e-02 0.0000000000000000e+00
31 1.2227044586258862e-02 -1.2246059906556864e-02 0.0000000000000000e+00
32 -2.9936204414138520e-02 2.8113773564983392e-02 0.0000000000000000e+00
