LAMMPS data file via write_data, version 29 Mar 2019, timestep = 20000000

32 atoms
1 atom types

-1.5000000000000000e+03 1.5000000000000000e+03 xlo xhi
-1.5000000000000000e+03 1.5000000000000000e+03 ylo yhi
-1.5000000000000000e+03 1.5000000000000000e+03 zlo zhi

Masses

1 0.00054858

Pair Coeffs # gauss/cut

1 0.0118479 0 33.6721

Atoms # atomic

1 1 2.9331217768157170e+01 1.4943634025717891e+01 0.0000000000000000e+00 0 0 0
2 1 9.0730715007721827e+01 -9.8787962982718213e+01 0.0000000000000000e+00 0 0 0
3 1 4.1287103646771911e+01 -3.6152330324312398e+00 0.0000000000000000e+00 0 0 0
4 1 3.3872847881436492e+01 -8.0640990252332642e+01 0.0000000000000000e+00 0 0 0
5 1 9.5741989182045351e-02 -1.1333232362719595e+02 0.0000000000000000e+00 0 0 0
6 1 -2.1694315956107950e+01 2.2919500332135684e+01 0.0000000000000000e+00 0 0 0
7 1 6.0393644838029950e+01 -6.1370643314891680e+01 0.0000000000000000e+00 0 0 0
8 1 4.5819528851387162e+01 -1.4975444269838854e+02 0.0000000000000000e+00 0 0 0
9 1 -5.1151528331366627e+01 -1.3182681539867269e+02 0.0000000000000000e+00 0 0 0
10 1 -1.3736278600112317e+02 1.4287402974928116e+02 0.0000000000000000e+00 0 0 0
11 1 1.0600491637487443e+02 6.4384687077416388e+01 0.0000000000000000e+00 0 0 0
12 1 -2.4764333818717038e+01 -1.3528166637254233e+02 0.0000000000000000e+00 0 0 0
13 1 1.5582637149742328e+02 -8.4765730092307379e+01 0.0000000000000000e+00 0 0 0
14 1 -1.1849654877211505e+02 -6.5790774139971219e+01 0.0000000000000000e+00 0 0 0
15 1 -1.9183699053853533e+02 6.1354135984901959e+01 0.0000000000000000e+00 0 0 0
16 1 9.1908003668547735e+01 -1.6461703184572832e+02 0.0000000000000000e+00 0 0 0
17 1 2.1705480393189936e+02 1.3444515567243022e+02 0.0000000000000000e+00 0 0 0
18 1 6.9155559204646693e+00 4.6936802974766579e+01 0.0000000000000000e+00 0 0 0
19 1 9.3275367085519932e+01 9.4954880758210521e+01 0.0000000000000000e+00 0 0 0
20 1 -1.2583732383209946e+02 -7.4979462942373829e+01 0.0000000000000000e+00 0 0 0
21 1 -2.4763488908464751e+01 1.3717433056977637e+02 0.0000000000000000e+00 0 0 0
22 1 6.5218091717315886e+01 -1.6905830739324190e+02 0.0000000000000000e+00 0 0 0
23 1 -1.2630146383840869e+02 3.7715943933971523e+01 0.0000000000000000e+00 0 0 0
24 1 -6.8087766250018120e+01 7.5382329749009083e+00 0.0000000000000000e+00 0 0 0
25 1 3.6437940057653741e+01 1.3324476281636385e+02 0.0000000000000000e+00 0 0 0
26 1 1.3632935859516914e+02 -1.6449164926624874e+01 0.0000000000000000e+00 0 0 0
27 1 -2.3665808111440903e+01 4.5643981284212877e+01 0.0000000000000000e+00 0 0 0
28 1 -1.5288876562273746e+01 -1.3711329772770551e+01 0.0000000000000000e+00 0 0 0
29 1 6.4078274095413818e+01 1.2145005702490748e+01 0.0000000000000000e+00 0 0 0
30 1 1.5860857742927169e+02 -7.8422179471650351e+00 0.0000000000000000e+00 0 0 0
31 1 1.6959648000447095e+02 -2.7927191310087136e+02 0.0000000000000000e+00 0 0 0
32 1 -9.4698782203456588e+01 1.3126685592366022e+02 0.0000000000000000e+00 0 0 0

Velocities

1 7.5002221997550762e-03 -1.2223178635794042e-02 0.0000000000000000e+00
2 2.5330175533294159e-02 -6.5484371527542596e-03 0.0000000000000000e+00
3 -1.3541014125592599e-02 -1.9827188807694535e-02 0.0000000000000000e+00
4 3.2053379021866550e-02 7.8368435510013778e-03 0.0000000000000000e+00
5 2.1958320661812344e-02 1.1470027636726127e-02 0.0000000000000000e+00
6 -4.0324262223112889e-02 -8.1405759139798986e-02 0.0000000000000000e+00
7 6.3425314859939769e-02 -1.6095590837187323e-02 0.0000000000000000e+00
8 7.5621903824631340e-02 -3.9474239002136632e-02 0.0000000000000000e+00
9 -5.4951468287989611e-03 3.5034247684767858e-02 0.0000000000000000e+00
10 1.5733759008922658e-02 2.3561668786502777e-02 0.0000000000000000e+00
11 6.2984105559630577e-02 3.7731361019487000e-02 0.0000000000000000e+00
12 -5.3210595875440046e-02 -8.0019149362532058e-02 0.0000000000000000e+00
13 -2.8997353680052865e-02 2.1365306433581761e-02 0.0000000000000000e+00
14 -1.1785837173197282e-02 -1.9483022727053108e-02 0.0000000000000000e+00
15 1.4892391334892388e-02 2.7833875886992075e-02 0.0000000000000000e+00
16 -1.4701258213752958e-02 3.8377298278152776e-02 0.0000000000000000e+00
17 -6.6801674777957218e-02 -1.6426590264150095e-02 0.0000000000000000e+00
18 -1.0409553792772140e-02 -7.7000500096543661e-02 0.0000000000000000e+00
19 -8.9436115867936136e-02 2.3087006632884585e-02 0.0000000000000000e+00
20 -4.5060904833056289e-03 -2.1388019842225586e-02 0.0000000000000000e+00
21 -5.6372809929521560e-02 2.1793382174725900e-02 0.0000000000000000e+00
22 -5.1091186476346313e-02 -1.1442947723287161e-02 0.0000000000000000e+00
23 7.0098628929654641e-02 -1.9390211314767408e-02 0.0000000000000000e+00
24 -5.0104670618930279e-02 2.1657932889993819e-02 0.0000000000000000e+00
25 -6.3396854238453898e-02 -5.0025449438117847e-02 0.0000000000000000e+00
26 2.8807398439113823e-02 -3.5596848329897346e-02 0.0000000000000000e+00
27 3.2285325949902724e-03 2.3875732663374102e-02 0.0000000000000000e+00
28 -4.9303053507713954e-02 -5.1523504406488126e-02 0.0000000000000000e+00
29 -4.8853684900642722e-02 6.5765446744110140e-02 0.0000000000000000e+00
30 5.3140701189443021e-03 3.4509381336440707e-02 0.0000000000000000e+00
31 -2.7592071975587981e-02 1.3934123543190421e-02 0.0000000000000000e+00
32 -6.6537640908014969e-03 4.2200053737036780e-02 0.0000000000000000e+00
