LAMMPS data file via write_data, version 29 Mar 2019, timestep = 20000000

32 atoms
1 atom types

-1.5000000000000000e+03 1.5000000000000000e+03 xlo xhi
-1.5000000000000000e+03 1.5000000000000000e+03 ylo yhi
-1.5000000000000000e+03 1.5000000000000000e+03 zlo zhi

Masses

1 0.00054858

Pair Coeffs # gauss/cut

1 0.0355436 0 33.6721

Atoms # atomic

1 1 1.7067983573479728e+02 5.1330899518731279e+01 0.0000000000000000e+00 0 0 0
2 1 -1.2276518870272339e+02 1.8845811534647677e+02 0.0000000000000000e+00 0 0 0
3 1 3.6306765276791289e+01 1.3402692611168555e+02 0.0000000000000000e+00 0 0 0
4 1 -5.9491048050268589e+01 2.4165895755722119e+01 0.0000000000000000e+00 0 0 0
5 1 5.5104896142475532e+01 -5.4322688984389469e+00 0.0000000000000000e+00 0 0 0
6 1 -4.1203573315286647e+01 1.4930970615582652e+02 0.0000000000000000e+00 0 0 0
7 1 -1.5424014612970066e+02 1.3371249178352878e+02 0.0000000000000000e+00 0 0 0
8 1 -1.6740521001732122e+02 -8.4041180365659159e+01 0.0000000000000000e+00 0 0 0
9 1 -1.4794246208683288e+02 -2.2060938891407699e+02 0.0000000000000000e+00 0 0 0
10 1 4.1658999392758368e+01 -1.0123283013732842e+02 0.0000000000000000e+00 0 0 0
11 1 2.1197068669584843e+02 -2.7400119598526931e+01 0.0000000000000000e+00 0 0 0
12 1 1.3675688940498395e+02 3.3877494627264973e+01 0.0000000000000000e+00 0 0 0
13 1 -1.1034668924838161e+02 5.6021252376340286e+01 0.0000000000000000e+00 0 0 0
14 1 4.9555931862076356e+01 1.0728267691904976e+02 0.0000000000000000e+00 0 0 0
15 1 2.2774215457666926e+02 -1.5390370313701981e+01 0.0000000000000000e+00 0 0 0
16 1 -3.5577167891933605e+01 3.3285178140828116e+01 0.0000000000000000e+00 0 0 0
17 1 1.1702199650345275e+02 -1.0962432849438285e+02 0.0000000000000000e+00 0 0 0
18 1 5.5669675085479859e+01 -1.8442199271594509e+02 0.0000000000000000e+00 0 0 0
19 1 1.8997276908819552e+02 -1.2459619356130619e+02 0.0000000000000000e+00 0 0 0
20 1 -7.4342430252049052e+00 1.3224022962130124e+02 0.0000000000000000e+00 0 0 0
21 1 1.0725748872147329e+02 -3.8564306545116708e+01 0.0000000000000000e+00 0 0 0
22 1 2.1761801369955279e+01 -6.8535969782018157e+01 0.0000000000000000e+00 0 0 0
23 1 -1.1637683120240277e+02 4.2851678609958242e+01 0.0000000000000000e+00 0 0 0
24 1 -4.8581356055245962e+01 1.1400128742576543e+02 0.0000000000000000e+00 0 0 0
25 1 1.5807428829348947e+02 8.8912453982767204e+01 0.0000000000000000e+00 0 0 0
26 1 2.7009323208417069e+01 -5.0179370608041786e+01 0.0000000000000000e+00 0 0 0
27 1 -2.2117879742418069e+02 -1.1034518888748379e+02 0.0000000000000000e+00 0 0 0
28 1 -1.8045652561497107e+01 1.1885560668310282e+02 0.0000000000000000e+00 0 0 0
29 1 -9.3184437464511845e+01 -5.5021265928320211e+01 0.0000000000000000e+00 0 0 0
30 1 -1.6436924542640020e+02 6.8828412867738562e+00 0.0000000000000000e+00 0 0 0
31 1 -1.0432952819118351e+02 -1.6271763933478928e+02 0.0000000000000000e+00 0 0 0
32 1 1.6821754890997565e+02 -1.0982543257435906e+02 0.0000000000000000e+00 0 0 0

Velocities

1 -5.3592974430274588e-02 -5.2400825020273677e-02 0.0000000000000000e+00
2 -9.4784707272931257e-02 -1.3081722935140427e-01 0.0000000000000000e+00
3 -5.1021499559749744e-02 2.7459859798981323e-01 0.0000000000000000e+00
4 -3.9675718271827649e-02 -6.9618949962806251e-02 0.0000000000000000e+00
5 -6.0453937423452127e-02 1.7225617780950126e-02 0.0000000000000000e+00
6 -8.3523949690695584e-02 1.1265051931256456e-01 0.0000000000000000e+00
7 -1.5181467393695583e-01 5.2584803935379079e-02 0.0000000000000000e+00
8 -1.1346234435955506e-01 -2.9698706017133820e-02 0.0000000000000000e+00
9 3.2983971180168464e-02 2.4235953591351788e-02 0.0000000000000000e+00
10 -4.1622439739092965e-02 -1.1821717036955701e-01 0.0000000000000000e+00
11 8.5435448740963458e-03 -2.3110131696333313e-02 0.0000000000000000e+00
12 1.1893024909343415e-01 9.6721717177045849e-02 0.0000000000000000e+00
13 -3.7231441896759011e-02 1.0556009338281472e-02 0.0000000000000000e+00
14 2.1488226259160764e-01 1.3170088983866687e-01 0.0000000000000000e+00
15 1.2367497698602065e-01 2.6572230034404679e-02 0.0000000000000000e+00
16 -1.0407984972757786e-01 -6.2450942858667373e-04 0.0000000000000000e+00
17 -1.1534484231752605e-03 -8.1584483582058234e-02 0.0000000000000000e+00
18 9.4607336644729312e-02 -1.2964224954867916e-02 0.0000000000000000e+00
19 -5.3655434043420491e-02 9.9084089925726801e-02 0.0000000000000000e+00
20 -3.6522507172574381e-02 1.4010139487065162e-01 0.0000000000000000e+00
21 1.6480467965141719e-02 -1.5818919834010705e-02 0.0000000000000000e+00
22 -2.4765919906712924e-01 2.0642854415792905e-01 0.0000000000000000e+00
23 5.6414961821042775e-02 -5.8003711074371370e-02 0.0000000000000000e+00
24 7.3096415095368322e-02 -1.4574788036566194e-01 0.0000000000000000e+00
25 1.2889091102201931e-02 4.9119410685761020e-02 0.0000000000000000e+00
26 -1.0602462065493456e-02 -8.4085704053583704e-02 0.0000000000000000e+00
27 -1.2002430078816664e-01 -9.4177987515563985e-02 0.0000000000000000e+00
28 9.2355478106892139e-03 -7.0687129283694763e-02 0.0000000000000000e+00
29 -2.5871565811835327e-02 -1.1118799163781100e-01 0.0000000000000000e+00
30 2.7400761104751922e-02 3.2113251175610522e-02 0.0000000000000000e+00
31 -2.1790360515937090e-03 -1.3568233159760354e-01 0.0000000000000000e+00
32 -4.6958131587423561e-02 1.2881926076643136e-02 0.0000000000000000e+00
