LAMMPS data file via write_data, version 29 Mar 2019, timestep = 20000000

32 atoms
1 atom types

-1.5000000000000000e+03 1.5000000000000000e+03 xlo xhi
-1.5000000000000000e+03 1.5000000000000000e+03 ylo yhi
-1.5000000000000000e+03 1.5000000000000000e+03 zlo zhi

Masses

1 0.00054858

Pair Coeffs # gauss/cut

1 0.0355436 0 33.6721

Atoms # atomic

1 1 1.8493766868290348e+02 7.9437101474282326e+00 0.0000000000000000e+00 0 0 0
2 1 -1.1145696094723252e+02 1.5993499936391640e+02 0.0000000000000000e+00 0 0 0
3 1 6.2165366557969193e+01 1.0540431337352288e+02 0.0000000000000000e+00 0 0 0
4 1 8.4623135450902360e+00 9.5397781415638938e-01 0.0000000000000000e+00 0 0 0
5 1 5.0169444315104306e+00 9.6883551190814252e+00 0.0000000000000000e+00 0 0 0
6 1 -3.9321383771313823e+00 7.3848273880249664e+01 0.0000000000000000e+00 0 0 0
7 1 -1.1261979155292555e+02 1.3576644327971690e+02 0.0000000000000000e+00 0 0 0
8 1 -1.4481685857552219e+02 -5.6297776823816044e+01 0.0000000000000000e+00 0 0 0
9 1 -1.3528845659260011e+02 -2.2542226588132533e+02 0.0000000000000000e+00 0 0 0
10 1 5.8286169089317440e+01 -1.0878783863158645e+02 0.0000000000000000e+00 0 0 0
11 1 1.3902326231034814e+02 -8.0617219551053410e+01 0.0000000000000000e+00 0 0 0
12 1 1.0793779017891471e+02 -4.8769567160495955e+00 0.0000000000000000e+00 0 0 0
13 1 -9.4951928720496909e+01 9.8052616267137779e+01 0.0000000000000000e+00 0 0 0
14 1 8.0131374517889739e+01 1.3469148743918092e+02 0.0000000000000000e+00 0 0 0
15 1 2.6163966741057561e+02 -4.3118527797051645e+00 0.0000000000000000e+00 0 0 0
16 1 2.3323629447355405e+01 1.4160723142091568e+01 0.0000000000000000e+00 0 0 0
17 1 7.0596653846668744e+01 -1.3556960934373376e+02 0.0000000000000000e+00 0 0 0
18 1 7.1127401325113780e+01 -1.5688619790397792e+02 0.0000000000000000e+00 0 0 0
19 1 1.8155410421267558e+02 -8.3392257014609797e+01 0.0000000000000000e+00 0 0 0
20 1 -2.8990973927436023e+00 1.2732286856063915e+02 0.0000000000000000e+00 0 0 0
21 1 1.5931614468056722e+02 -1.0238059857480206e+00 0.0000000000000000e+00 0 0 0
22 1 2.1666842148806346e+01 -6.3822555596265452e+01 0.0000000000000000e+00 0 0 0
23 1 -9.2716684221753439e+01 3.4184962891123568e+01 0.0000000000000000e+00 0 0 0
24 1 -6.7186932898432886e+01 1.5509698187467916e+02 0.0000000000000000e+00 0 0 0
25 1 1.8295528258105401e+02 4.3469098154182369e+01 0.0000000000000000e+00 0 0 0
26 1 -6.9493076551536603e+01 -5.3344128226783170e+01 0.0000000000000000e+00 0 0 0
27 1 -2.2935323903967884e+02 -9.6465442126267874e+01 0.0000000000000000e+00 0 0 0
28 1 -1.7402732106408905e+01 1.1546687658903291e+02 0.0000000000000000e+00 0 0 0
29 1 -4.3988061425640261e+01 -4.7362286388658916e+01 0.0000000000000000e+00 0 0 0
30 1 -1.5202825841126494e+02 -6.5761954079293673e+01 0.0000000000000000e+00 0 0 0
31 1 -5.0086094397702688e+01 -1.3263926438067742e+02 0.0000000000000000e+00 0 0 0
32 1 1.3853844455853587e+02 -1.0649008092032409e+02 0.0000000000000000e+00 0 0 0

Velocities

1 -9.2861748479468015e-02 -5.5050687748659219e-02 0.0000000000000000e+00
2 1.2441534774139451e-01 4.0368269292617449e-02 0.0000000000000000e+00
3 3.8194643458453262e-02 2.4075528215423345e-02 0.0000000000000000e+00
4 -1.5769694562885617e-02 5.5211691431343843e-02 0.0000000000000000e+00
5 -6.2305982005700825e-02 -6.7306998895104664e-02 0.0000000000000000e+00
6 -6.5710507180437625e-02 2.0414394144967671e-03 0.0000000000000000e+00
7 -9.3151924478663065e-02 -1.8508111558521018e-02 0.0000000000000000e+00
8 -8.5727334564338287e-02 1.2024395642125137e-01 0.0000000000000000e+00
9 -1.2414761506228658e-01 -1.9505679711018681e-01 0.0000000000000000e+00
10 -1.7277667091100468e-01 -3.3218294291034955e-02 0.0000000000000000e+00
11 -5.9359898849474291e-02 5.1851394021348633e-02 0.0000000000000000e+00
12 6.2991478502971515e-02 -8.2170188341183281e-02 0.0000000000000000e+00
13 -9.6978561628473844e-03 1.7812649391750113e-01 0.0000000000000000e+00
14 -4.4634299514098058e-02 -8.7418399550105302e-02 0.0000000000000000e+00
15 -7.9050054848321671e-02 -1.0960164925446059e-01 0.0000000000000000e+00
16 1.4288322029787651e-01 -6.3263172352700320e-02 0.0000000000000000e+00
17 5.9742856117637827e-02 6.4105839868957598e-02 0.0000000000000000e+00
18 -7.6033058885694893e-02 2.6360233838422929e-02 0.0000000000000000e+00
19 9.9645037271924152e-03 2.6369356861838025e-02 0.0000000000000000e+00
20 -2.1127476073954837e-01 1.6673047341344702e-01 0.0000000000000000e+00
21 1.5733449097708457e-01 -1.8190199509377358e-01 0.0000000000000000e+00
22 5.2922852785577304e-02 1.2290290968123656e-01 0.0000000000000000e+00
23 -4.9474641064397001e-02 7.0251407845765305e-03 0.0000000000000000e+00
24 1.5149195941998958e-01 6.5487514372679669e-03 0.0000000000000000e+00
25 -1.8776836799617679e-02 -9.3591300014337825e-02 0.0000000000000000e+00
26 4.1091088306112480e-02 -7.0168544359884094e-02 0.0000000000000000e+00
27 4.2261054407387769e-02 3.6280378105662370e-02 0.0000000000000000e+00
28 9.5915437243673074e-02 3.9082987743430990e-02 0.0000000000000000e+00
29 2.4332981998093379e-02 7.4904809262632835e-02 0.0000000000000000e+00
30 -4.2771833289034821e-03 -2.0984206816326085e-02 0.0000000000000000e+00
31 -8.2040366875505408e-02 -1.5696192333466782e-01 0.0000000000000000e+00
32 -1.6675114842795328e-02 8.0881058049189825e-02 0.0000000000000000e+00
