LAMMPS data file via write_data, version 29 Mar 2019, timestep = 20000000

32 atoms
1 atom types

-1.5000000000000000e+03 1.5000000000000000e+03 xlo xhi
-1.5000000000000000e+03 1.5000000000000000e+03 ylo yhi
-1.5000000000000000e+03 1.5000000000000000e+03 zlo zhi

Masses

1 0.00054858

Pair Coeffs # gauss/cut

1 0.0118479 0 33.6721

Atoms # atomic

1 1 7.5014105196702246e+01 2.9985538139258434e+01 0.0000000000000000e+00 0 0 0
2 1 1.0674757851092498e+02 -1.5028711049472744e+02 0.0000000000000000e+00 0 0 0
3 1 1.3116416239148140e+02 -3.0711557589562879e+01 0.0000000000000000e+00 0 0 0
4 1 1.9743599880760783e+01 -9.8161857065165364e+01 0.0000000000000000e+00 0 0 0
5 1 2.4709222945649316e+01 -5.9895781951002164e+01 0.0000000000000000e+00 0 0 0
6 1 -7.2472952366842804e+01 9.1336199263931292e+01 0.0000000000000000e+00 0 0 0
7 1 9.8055395585992713e+01 -1.4846911979926884e+02 0.0000000000000000e+00 0 0 0
8 1 -2.6516338440802234e+00 -2.5485907189996445e+02 0.0000000000000000e+00 0 0 0
9 1 -1.0683795969787116e+02 -3.0107015444071365e+01 0.0000000000000000e+00 0 0 0
10 1 1.5772350529452005e+01 1.0608782099284308e+02 0.0000000000000000e+00 0 0 0
11 1 1.0736914118274898e+02 1.0618798170290214e+02 0.0000000000000000e+00 0 0 0
12 1 -6.4256927403321029e+01 -1.8432566521172549e+02 0.0000000000000000e+00 0 0 0
13 1 1.8661717052427028e+02 -7.3589737326496021e+01 0.0000000000000000e+00 0 0 0
14 1 -1.9395672413959107e+02 -5.0249946943849707e+01 0.0000000000000000e+00 0 0 0
15 1 -1.3323410318582080e+02 1.4194802307538603e+02 0.0000000000000000e+00 0 0 0
16 1 5.2267954126717314e+01 -1.5546696995922395e+02 0.0000000000000000e+00 0 0 0
17 1 2.1767934026043835e+02 1.6952118450759804e+02 0.0000000000000000e+00 0 0 0
18 1 5.4899301840101877e+01 4.6029073756234730e+01 0.0000000000000000e+00 0 0 0
19 1 1.3939212987007313e+01 1.1075012191763554e+02 0.0000000000000000e+00 0 0 0
20 1 -1.1866832153521932e+02 -1.9955522455529522e+01 0.0000000000000000e+00 0 0 0
21 1 -6.7889387856726941e+01 1.1632642986395476e+00 0.0000000000000000e+00 0 0 0
22 1 -3.1049391490223912e+00 -2.0482967841286012e+02 0.0000000000000000e+00 0 0 0
23 1 -1.1988265047496270e+02 1.0612740758118252e+02 0.0000000000000000e+00 0 0 0
24 1 -3.9799359187785093e+01 7.5281357016566929e+01 0.0000000000000000e+00 0 0 0
25 1 -6.1588643705853725e+00 5.2385356264386274e+01 0.0000000000000000e+00 0 0 0
26 1 2.0898510370469700e+02 4.8908396627981915e+01 0.0000000000000000e+00 0 0 0
27 1 -2.7064088138719121e+01 3.5303462705248009e+01 0.0000000000000000e+00 0 0 0
28 1 -1.0205246689886073e+01 -2.8496540241734543e+01 0.0000000000000000e+00 0 0 0
29 1 1.0657012170657563e+02 -5.9180995282561206e+01 0.0000000000000000e+00 0 0 0
30 1 1.4185899596392221e+02 9.1942638275209738e+00 0.0000000000000000e+00 0 0 0
31 1 2.1528023035415904e+02 -1.9452102510417922e+02 0.0000000000000000e+00 0 0 0
32 1 -4.3269574225400888e+01 1.2587896889284740e+02 0.0000000000000000e+00 0 0 0

Velocities

1 -8.8064665903326948e-03 -1.7845473775990151e-02 0.0000000000000000e+00
2 5.5499750785032692e-02 -1.0852147291884568e-02 0.0000000000000000e+00
3 6.6891203398781851e-02 3.1234020911118581e-02 0.0000000000000000e+00
4 -5.4380549403523493e-02 8.5380978996722062e-03 0.0000000000000000e+00
5 5.1420915545770822e-02 -5.5259967970509770e-02 0.0000000000000000e+00
6 -2.8943753144897683e-02 2.7666190772789936e-02 0.0000000000000000e+00
7 1.6646060519997331e-02 -1.3674818226511821e-02 0.0000000000000000e+00
8 -9.3343720160814853e-02 1.9349366692744174e-02 0.0000000000000000e+00
9 -8.4293703180103693e-02 -2.6292109700842704e-02 0.0000000000000000e+00
10 1.2889320715102150e-02 6.8650819594866602e-02 0.0000000000000000e+00
11 -9.0351591167343219e-04 -1.3231510119014744e-02 0.0000000000000000e+00
12 1.2553091547981588e-02 -5.3165964803393445e-02 0.0000000000000000e+00
13 2.0716699344663168e-03 -1.3591285736762573e-02 0.0000000000000000e+00
14 1.0769305563212234e-02 -1.8254239154294812e-02 0.0000000000000000e+00
15 2.2421102633377953e-02 4.3283822698579513e-02 0.0000000000000000e+00
16 3.7227344783891815e-02 -6.0109957481769408e-02 0.0000000000000000e+00
17 -7.9049726573214046e-02 -1.8142630994573687e-02 0.0000000000000000e+00
18 5.4692976314745984e-02 -5.4206778878025760e-02 0.0000000000000000e+00
19 5.2906185298005087e-02 5.8749907232551191e-03 0.0000000000000000e+00
20 -2.8244076116023403e-02 -6.0139710588408751e-02 0.0000000000000000e+00
21 -4.6848647734332120e-03 6.9378966600222136e-02 0.0000000000000000e+00
22 2.2226075933814527e-02 2.5103729771897360e-02 0.0000000000000000e+00
23 2.0378799085467282e-02 2.1675047599590835e-02 0.0000000000000000e+00
24 -3.5105589274714480e-02 5.0484326184880760e-02 0.0000000000000000e+00
25 -7.0922932053199023e-02 -5.5264791281796392e-02 0.0000000000000000e+00
26 -3.0800551670004646e-03 2.1329918686785163e-02 0.0000000000000000e+00
27 -1.5333701306188055e-03 -1.4267020219176970e-02 0.0000000000000000e+00
28 -6.6022635049049648e-03 2.9419909763027810e-03 0.0000000000000000e+00
29 1.0949897599171643e-02 -4.9461774916851053e-02 0.0000000000000000e+00
30 -1.7828773577532840e-02 4.0804980631324546e-02 0.0000000000000000e+00
31 -3.8209751674605809e-02 1.7992691090850905e-02 0.0000000000000000e+00
32 -3.0460064530226948e-02 -2.0731033384652008e-02 0.0000000000000000e+00
