LAMMPS data file via write_data, version 29 Mar 2019, timestep = 20000000

32 atoms
1 atom types

-1.5000000000000000e+03 1.5000000000000000e+03 xlo xhi
-1.5000000000000000e+03 1.5000000000000000e+03 ylo yhi
-1.5000000000000000e+03 1.5000000000000000e+03 zlo zhi

Masses

1 0.00054858

Pair Coeffs # gauss/cut

1 0.0118479 0 33.6721

Atoms # atomic

1 1 3.4148060044440944e+00 -7.8997260898183427e+01 0.0000000000000000e+00 0 0 0
2 1 2.9426962457071962e+01 -1.5681168570950834e+02 0.0000000000000000e+00 0 0 0
3 1 1.2704803718484548e+02 5.1100753524371775e+01 0.0000000000000000e+00 0 0 0
4 1 3.4918426992534897e+01 -1.6899317191932704e+02 0.0000000000000000e+00 0 0 0
5 1 -5.4109505036613946e+01 -1.6698390418947068e+02 0.0000000000000000e+00 0 0 0
6 1 -3.9160030780798344e+01 4.7555357752136402e+01 0.0000000000000000e+00 0 0 0
7 1 1.5837202345097481e+02 -1.9940947286754428e+02 0.0000000000000000e+00 0 0 0
8 1 -2.6518285880726115e+01 -1.9931797447133968e+02 0.0000000000000000e+00 0 0 0
9 1 -7.7255003732099411e+01 -1.2454471217128417e+02 0.0000000000000000e+00 0 0 0
10 1 2.4442104039427310e+01 1.5682598719681027e+02 0.0000000000000000e+00 0 0 0
11 1 1.8631650899386474e+02 5.6906363855240784e+01 0.0000000000000000e+00 0 0 0
12 1 -7.9754756154121537e+01 -1.5345877560367563e+02 0.0000000000000000e+00 0 0 0
13 1 6.6072184327569772e+01 -8.3788419803119055e+01 0.0000000000000000e+00 0 0 0
14 1 -1.1506411894644282e+02 -1.0025635744276404e+02 0.0000000000000000e+00 0 0 0
15 1 -6.7973342091227678e+01 7.6295593378456005e+01 0.0000000000000000e+00 0 0 0
16 1 4.1793492905404271e+01 -1.6647776964645121e+02 0.0000000000000000e+00 0 0 0
17 1 1.6605128508408922e+02 1.2638942217329264e+02 0.0000000000000000e+00 0 0 0
18 1 5.3336975535130449e+01 6.0700466660121917e+00 0.0000000000000000e+00 0 0 0
19 1 5.9660643818585335e+01 6.7694504704031175e+01 0.0000000000000000e+00 0 0 0
20 1 -1.5006484175425953e+01 -1.1266507874881269e+01 0.0000000000000000e+00 0 0 0
21 1 -1.1011637552247657e+02 -6.2378836816662986e+00 0.0000000000000000e+00 0 0 0
22 1 5.5785229694298359e+01 -8.1320059472503999e+01 0.0000000000000000e+00 0 0 0
23 1 -7.0584722727100271e+01 9.8268806278459905e+01 0.0000000000000000e+00 0 0 0
24 1 -6.7103809854896062e+00 5.7854495936214661e+01 0.0000000000000000e+00 0 0 0
25 1 2.8079627593580014e+01 4.5433112570806365e+01 0.0000000000000000e+00 0 0 0
26 1 1.1891540340471856e+02 1.7203692411089108e+01 0.0000000000000000e+00 0 0 0
27 1 -1.2803742563186822e+02 6.0521355350366250e+01 0.0000000000000000e+00 0 0 0
28 1 2.1608680371875685e+01 -1.1563619489360113e+01 0.0000000000000000e+00 0 0 0
29 1 1.8300236921067631e+02 -3.1047022564032016e+01 0.0000000000000000e+00 0 0 0
30 1 1.2779761239316406e+02 2.0146879770146713e+00 0.0000000000000000e+00 0 0 0
31 1 1.2629952514740711e+02 -9.2181142053232875e+01 0.0000000000000000e+00 0 0 0
32 1 -5.4539469834114399e+01 5.6163498564472548e+01 0.0000000000000000e+00 0 0 0

Velocities

1 -3.0796684030718360e-02 1.5300261923698223e-02 0.0000000000000000e+00
2 4.7041615577144806e-03 2.4082148764271397e-02 0.0000000000000000e+00
3 7.1853016097595196e-03 5.4106456997945765e-02 0.0000000000000000e+00
4 6.1919222820150284e-03 3.2571712654077344e-02 0.0000000000000000e+00
5 -2.9848869466872447e-02 1.2649175186151947e-02 0.0000000000000000e+00
6 6.5088578429868496e-02 9.5931152233517895e-03 0.0000000000000000e+00
7 1.4095919838751674e-02 -1.4042642569049855e-02 0.0000000000000000e+00
8 4.5393709667263235e-02 -5.1091719712983508e-03 0.0000000000000000e+00
9 -5.5744606718108568e-03 6.2300727108606253e-03 0.0000000000000000e+00
10 -1.0948104898756701e-02 1.3569175073372068e-03 0.0000000000000000e+00
11 -2.0061481321796332e-02 2.6422192339754978e-02 0.0000000000000000e+00
12 -1.7336866320860702e-02 2.1951395000242669e-02 0.0000000000000000e+00
13 2.1718383903330519e-02 -1.6409793298120649e-02 0.0000000000000000e+00
14 8.3975517025088736e-04 -4.0532947369859684e-02 0.0000000000000000e+00
15 3.3478616246658474e-02 1.6122558038641873e-02 0.0000000000000000e+00
16 -3.6656033368180599e-03 1.3416057032103105e-02 0.0000000000000000e+00
17 -1.1476381378185936e-02 -3.3339958600515349e-02 0.0000000000000000e+00
18 3.9785434397111206e-02 -9.5200570578694542e-03 0.0000000000000000e+00
19 -2.7329669070046700e-03 1.6509204975511792e-02 0.0000000000000000e+00
20 -1.1208225556131541e-02 -1.4225695430180169e-02 0.0000000000000000e+00
21 -2.1561392274563593e-02 2.2987613437855997e-03 0.0000000000000000e+00
22 -3.2841899200011480e-03 2.3323125514784146e-02 0.0000000000000000e+00
23 -3.9585192308016055e-02 -2.2134139157048975e-02 0.0000000000000000e+00
24 8.6454236340806866e-03 -5.6809798882625747e-03 0.0000000000000000e+00
25 -3.4607124046834269e-02 -3.2581524811852440e-02 0.0000000000000000e+00
26 6.0335332689354232e-03 1.9344177633458151e-02 0.0000000000000000e+00
27 1.2064670928617609e-02 -3.0832636317301106e-02 0.0000000000000000e+00
28 2.6803620643536544e-02 1.6649593165151706e-02 0.0000000000000000e+00
29 -2.2221286622684331e-03 4.7863747331108708e-02 0.0000000000000000e+00
30 -3.7679290837801228e-02 -9.8235414517737797e-03 0.0000000000000000e+00
31 8.4958352582944617e-04 -2.2626318439969338e-02 0.0000000000000000e+00
32 -1.5468016286936654e-02 2.2945521993152949e-02 0.0000000000000000e+00
