LAMMPS data file via write_data, version 29 Mar 2019, timestep = 20000000

32 atoms
1 atom types

-1.5000000000000000e+03 1.5000000000000000e+03 xlo xhi
-1.5000000000000000e+03 1.5000000000000000e+03 ylo yhi
-1.5000000000000000e+03 1.5000000000000000e+03 zlo zhi

Masses

1 0.00054858

Pair Coeffs # gauss/cut

1 0.0118479 0 33.6721

Atoms # atomic

1 1 4.2236298733086969e+01 1.3455544061753990e+01 0.0000000000000000e+00 0 0 0
2 1 6.8497279807472040e+01 -6.1002975681663308e+01 0.0000000000000000e+00 0 0 0
3 1 2.5214863662984595e+01 -2.1827540696784649e+01 0.0000000000000000e+00 0 0 0
4 1 3.7840136539784502e-01 -8.0725033571576517e+01 0.0000000000000000e+00 0 0 0
5 1 4.5007357228759354e+01 -9.8836637505582260e+01 0.0000000000000000e+00 0 0 0
6 1 -1.0579551640907549e+02 -1.6653851842158460e+01 0.0000000000000000e+00 0 0 0
7 1 4.3379094727263031e+01 3.7693612727056845e+01 0.0000000000000000e+00 0 0 0
8 1 3.7390329767701239e+01 -1.0182084658559688e+02 0.0000000000000000e+00 0 0 0
9 1 -3.1481830210696369e+01 -2.0850622669274449e+02 0.0000000000000000e+00 0 0 0
10 1 -1.2223454693973071e+02 1.5213037074956625e+02 0.0000000000000000e+00 0 0 0
11 1 1.0507092902085452e+02 3.8256020631835241e+01 0.0000000000000000e+00 0 0 0
12 1 6.1090074607851070e+00 -1.4016826869526787e+02 0.0000000000000000e+00 0 0 0
13 1 1.9162668564591380e+02 -5.1602935633314708e+01 0.0000000000000000e+00 0 0 0
14 1 -7.8783893543372542e+01 -2.3827013459501003e+01 0.0000000000000000e+00 0 0 0
15 1 -1.5520996982005562e+02 5.8203735962808373e+01 0.0000000000000000e+00 0 0 0
16 1 7.9294531315930584e+01 -1.4455468395224403e+02 0.0000000000000000e+00 0 0 0
17 1 2.4296097157784840e+02 1.1217719559810227e+02 0.0000000000000000e+00 0 0 0
18 1 3.7198149034710384e+00 6.8894401798350060e+01 0.0000000000000000e+00 0 0 0
19 1 9.7441555556300798e+01 1.0655395069439710e+02 0.0000000000000000e+00 0 0 0
20 1 -1.5659167628861687e+02 2.8102353921568586e+01 0.0000000000000000e+00 0 0 0
21 1 -5.2783870948118107e+01 1.7209555176687201e+02 0.0000000000000000e+00 0 0 0
22 1 -3.8389033907199668e+01 -9.0282997785519854e+01 0.0000000000000000e+00 0 0 0
23 1 -1.4166236881128279e+02 2.0474809941139664e+01 0.0000000000000000e+00 0 0 0
24 1 -7.7191134382123963e+01 -9.0781344272097243e+01 0.0000000000000000e+00 0 0 0
25 1 1.7624633510689677e+01 2.0505770638682307e+02 0.0000000000000000e+00 0 0 0
26 1 1.0592482546655084e+02 -5.4895769956548101e+01 0.0000000000000000e+00 0 0 0
27 1 -1.2643347202112121e+01 2.4883368556843909e+01 0.0000000000000000e+00 0 0 0
28 1 2.1352455765960290e+00 -1.1486923332607743e+02 0.0000000000000000e+00 0 0 0
29 1 6.2348777547380600e+01 7.5138213904017817e+01 0.0000000000000000e+00 0 0 0
30 1 1.0873968382312326e+02 4.8689071802405701e+00 0.0000000000000000e+00 0 0 0
31 1 1.9604415502757661e+02 -2.7026643866261384e+02 0.0000000000000000e+00 0 0 0
32 1 -1.3272921355225870e+02 1.1918258290642646e+02 0.0000000000000000e+00 0 0 0

Velocities

1 5.4119470760755191e-02 -2.5267228291121085e-02 0.0000000000000000e+00
2 3.2022255432055266e-02 5.2436470038735486e-02 0.0000000000000000e+00
3 -5.1324968765261464e-02 2.2171277601183877e-03 0.0000000000000000e+00
4 3.7328850503727536e-02 -4.3062145304759929e-02 0.0000000000000000e+00
5 -5.9774330683341854e-03 -5.3814408222071838e-03 0.0000000000000000e+00
6 5.9610683881523461e-03 3.3127351357711256e-02 0.0000000000000000e+00
7 -3.9603831041777844e-02 -4.3738093658218600e-03 0.0000000000000000e+00
8 1.7981634741280228e-02 -5.0458029027681379e-02 0.0000000000000000e+00
9 4.1480260029015496e-02 -1.7669767048197005e-02 0.0000000000000000e+00
10 4.4019584660649931e-02 -6.9739542687585363e-03 0.0000000000000000e+00
11 -1.2430887928173948e-01 -3.7692253536662446e-02 0.0000000000000000e+00
12 2.6105165372950281e-02 1.8907980064588051e-02 0.0000000000000000e+00
13 1.2862252768505458e-01 -4.3025668720264094e-02 0.0000000000000000e+00
14 -7.2308894542750649e-02 7.3234443573556712e-02 0.0000000000000000e+00
15 -8.0488992089088295e-03 1.3612089769449096e-02 0.0000000000000000e+00
16 -1.9929479812632394e-04 1.9630698820924359e-04 0.0000000000000000e+00
17 7.8062570261198186e-02 -1.5250373315748375e-01 0.0000000000000000e+00
18 2.6747330126570074e-02 4.7521314106810340e-02 0.0000000000000000e+00
19 1.7997407013088664e-03 -5.2020978890597043e-02 0.0000000000000000e+00
20 2.9919872748033996e-02 -9.5935440584988846e-02 0.0000000000000000e+00
21 -7.4871583077323348e-02 -4.9840554558370657e-02 0.0000000000000000e+00
22 -3.1512921464132662e-02 -5.0792307059497367e-02 0.0000000000000000e+00
23 1.2632748957203824e-01 -1.2272236027425028e-02 0.0000000000000000e+00
24 -2.8776753017647299e-02 -1.5536182088158715e-01 0.0000000000000000e+00
25 1.0029554084517204e-03 1.7885231009546265e-02 0.0000000000000000e+00
26 -2.0928170580325161e-03 3.0528549581130021e-02 0.0000000000000000e+00
27 1.4625362253951293e-02 5.5871710232179565e-02 0.0000000000000000e+00
28 3.8448426146133960e-02 5.0528794711076130e-02 0.0000000000000000e+00
29 -6.2531101370088913e-03 -8.5517661642443746e-02 0.0000000000000000e+00
30 8.1793071095864284e-02 4.7938179009631120e-02 0.0000000000000000e+00
31 5.7398454564706824e-02 8.8247431640687077e-03 0.0000000000000000e+00
32 1.0249927939479476e-02 -1.5086591769980213e-02 0.0000000000000000e+00
