LAMMPS data file via write_data, version 29 Mar 2019, timestep = 20000000

32 atoms
1 atom types

-1.5000000000000000e+03 1.5000000000000000e+03 xlo xhi
-1.5000000000000000e+03 1.5000000000000000e+03 ylo yhi
-1.5000000000000000e+03 1.5000000000000000e+03 zlo zhi

Masses

1 0.00054858

Pair Coeffs # gauss/cut

1 0.0118479 0 33.6721

Atoms # atomic

1 1 -8.8650355777521867e+01 7.0549606881342498e+01 0.0000000000000000e+00 0 0 0
2 1 4.5145401379079168e+01 3.9655178436330772e+01 0.0000000000000000e+00 0 0 0
3 1 3.3806412054650679e+01 2.5936544930604391e+01 0.0000000000000000e+00 0 0 0
4 1 -6.6448576630682524e+01 -5.3314993499492196e+01 0.0000000000000000e+00 0 0 0
5 1 -1.6241898066868245e+02 -1.0494107821288182e+02 0.0000000000000000e+00 0 0 0
6 1 -1.5496632164833085e+02 -4.5458901090543407e+01 0.0000000000000000e+00 0 0 0
7 1 1.7551192907349127e+02 -1.1167636894418590e+02 0.0000000000000000e+00 0 0 0
8 1 8.2442493211033359e+00 -1.3048253491599007e+02 0.0000000000000000e+00 0 0 0
9 1 -1.0011292349101689e+01 -1.3184000632295664e+02 0.0000000000000000e+00 0 0 0
10 1 -9.9480084821367129e+01 2.1078811883981371e+02 0.0000000000000000e+00 0 0 0
11 1 -1.0305050266511486e+00 1.3450259140831918e+02 0.0000000000000000e+00 0 0 0
12 1 -2.1831242533268853e+01 -5.7886279060100755e+01 0.0000000000000000e+00 0 0 0
13 1 -2.2736625810373706e+01 -6.5703226862579328e+01 0.0000000000000000e+00 0 0 0
14 1 -1.1001216661795338e+02 -1.9467105659405110e+01 0.0000000000000000e+00 0 0 0
15 1 -6.8903483287520288e+01 -4.5673492225139775e+01 0.0000000000000000e+00 0 0 0
16 1 9.9314313844488069e+01 -4.0172234981648298e+00 0.0000000000000000e+00 0 0 0
17 1 -1.4577521761084379e+01 1.8481443518040857e+02 0.0000000000000000e+00 0 0 0
18 1 8.8439841060564589e+01 1.6563199128204539e+02 0.0000000000000000e+00 0 0 0
19 1 -6.2049365219593000e+01 9.8687407929716517e+00 0.0000000000000000e+00 0 0 0
20 1 -2.2996199815475856e+02 6.8221692938746287e+01 0.0000000000000000e+00 0 0 0
21 1 -1.0264261089290663e+02 -1.0240946463768168e+02 0.0000000000000000e+00 0 0 0
22 1 5.1448537360059298e+01 1.1284088133145186e+01 0.0000000000000000e+00 0 0 0
23 1 1.7795053641818637e+01 5.2056503813105813e+01 0.0000000000000000e+00 0 0 0
24 1 -5.9143804868477204e+01 -2.5317785701890514e+01 0.0000000000000000e+00 0 0 0
25 1 3.7894977975262506e+01 2.2901576281814908e+02 0.0000000000000000e+00 0 0 0
26 1 8.4661745606095707e+01 -2.0026483337748058e+01 0.0000000000000000e+00 0 0 0
27 1 -1.5899729529579534e+02 6.3677412319080560e+01 0.0000000000000000e+00 0 0 0
28 1 9.6345270086499738e+01 -2.8468790209557895e+00 0.0000000000000000e+00 0 0 0
29 1 1.3721057930776968e+02 -1.3094521980961451e+01 0.0000000000000000e+00 0 0 0
30 1 1.6146239556654265e+02 6.3563867130324056e+01 0.0000000000000000e+00 0 0 0
31 1 1.4069024981943747e+02 -1.3443328257945512e+02 0.0000000000000000e+00 0 0 0
32 1 6.6187286883742232e+01 2.5592911062850092e+01 0.0000000000000000e+00 0 0 0

Velocities

1 -4.8739422784292406e-03 1.4436486335336212e-02 0.0000000000000000e+00
2 -1.6294488815413389e-02 -2.1380827086687378e-02 0.0000000000000000e+00
3 2.8927787562987913e-03 -1.6939222880919744e-02 0.0000000000000000e+00
4 1.6243443996977261e-02 -1.8939116818004133e-03 0.0000000000000000e+00
5 4.2813682180970279e-02 -2.4665935435757569e-03 0.0000000000000000e+00
6 -2.5801039575693616e-02 -3.7376169041619229e-03 0.0000000000000000e+00
7 1.8342638063857549e-03 -3.7824992724300403e-03 0.0000000000000000e+00
8 -7.7019871099069893e-03 -1.3101647915457740e-02 0.0000000000000000e+00
9 1.1936664999681422e-02 -1.8751956297829341e-02 0.0000000000000000e+00
10 -1.7714559195839523e-03 1.9058465614990728e-03 0.0000000000000000e+00
11 -9.7718170269834909e-04 -1.6695248916932342e-02 0.0000000000000000e+00
12 -6.6809659999161504e-03 -7.7779899778443028e-03 0.0000000000000000e+00
13 1.8831355831237816e-02 7.9489797172616564e-03 0.0000000000000000e+00
14 2.2594297788368245e-02 -1.6395946439470413e-02 0.0000000000000000e+00
15 -9.7637065924903248e-04 -4.5979443405569594e-02 0.0000000000000000e+00
16 2.6999366322429282e-02 2.0766227595825415e-02 0.0000000000000000e+00
17 8.8710153947774877e-04 2.6535498030872671e-03 0.0000000000000000e+00
18 2.7930707155593072e-02 6.1283805002073513e-03 0.0000000000000000e+00
19 2.1781312156445583e-02 7.8080272554575886e-03 0.0000000000000000e+00
20 -4.1180198527423330e-03 -2.2168097112907907e-03 0.0000000000000000e+00
21 -1.3088576891028714e-02 -1.8430462022602519e-02 0.0000000000000000e+00
22 -6.9838353834756738e-03 3.6160987561044612e-02 0.0000000000000000e+00
23 2.6575457335068896e-02 -9.5186077759655697e-03 0.0000000000000000e+00
24 1.5700704909006404e-02 8.5541725152002129e-03 0.0000000000000000e+00
25 -7.7955482766034557e-03 3.5648037084139339e-03 0.0000000000000000e+00
26 -1.7078405941113931e-02 -2.0207627038986670e-02 0.0000000000000000e+00
27 1.6104091492979526e-02 -4.8139597188984898e-03 0.0000000000000000e+00
28 3.6445812959490120e-02 -2.9723322717571877e-02 0.0000000000000000e+00
29 -3.5626527037449153e-02 -2.2267279132806128e-02 0.0000000000000000e+00
30 -1.7506017925258112e-02 -1.1574458655743043e-03 0.0000000000000000e+00
31 -1.4314170361418795e-02 1.4429945123153673e-02 0.0000000000000000e+00
32 -1.7041372957467809e-02 8.0005895721890503e-03 0.0000000000000000e+00
