LAMMPS data file via write_data, version 29 Mar 2019, timestep = 20000000

32 atoms
1 atom types

-1.5000000000000000e+03 1.5000000000000000e+03 xlo xhi
-1.5000000000000000e+03 1.5000000000000000e+03 ylo yhi
-1.5000000000000000e+03 1.5000000000000000e+03 zlo zhi

Masses

1 0.00054858

Pair Coeffs # gauss/cut

1 0.0355436 0 33.6721

Atoms # atomic

1 1 1.3014877873045489e+02 -1.6829598533886845e+00 0.0000000000000000e+00 0 0 0
2 1 -5.3911020103333826e+01 1.9272686974379306e+02 0.0000000000000000e+00 0 0 0
3 1 -4.0532606005540522e+01 6.5149382347446263e+01 0.0000000000000000e+00 0 0 0
4 1 -8.7733134987663121e+01 3.4268122056075690e+01 0.0000000000000000e+00 0 0 0
5 1 6.6591080065034916e+01 7.4520018350458031e+01 0.0000000000000000e+00 0 0 0
6 1 -8.2570883918330694e+01 1.5911561012622212e+02 0.0000000000000000e+00 0 0 0
7 1 -1.2391341685825310e+02 1.0376707188612721e+02 0.0000000000000000e+00 0 0 0
8 1 -6.3781823070546395e+01 -6.1204289054515030e+01 0.0000000000000000e+00 0 0 0
9 1 -1.5883855898696939e+02 -2.2236985814770608e+02 0.0000000000000000e+00 0 0 0
10 1 1.7223459274821298e+02 -9.7419091468617381e+01 0.0000000000000000e+00 0 0 0
11 1 1.2363365906538503e+02 -2.9732038184477204e+01 0.0000000000000000e+00 0 0 0
12 1 2.0745264171346446e+02 -3.7545295032659723e+01 0.0000000000000000e+00 0 0 0
13 1 -1.3557809152513053e+02 6.9991286084708989e+01 0.0000000000000000e+00 0 0 0
14 1 1.5422047165493322e+02 1.7235933414471495e+02 0.0000000000000000e+00 0 0 0
15 1 3.0716491089539159e+02 6.3221677101746421e+00 0.0000000000000000e+00 0 0 0
16 1 -1.3370843774313251e+01 -1.6482178456738573e+01 0.0000000000000000e+00 0 0 0
17 1 1.4385016467447522e+02 -1.6523674788657630e+02 0.0000000000000000e+00 0 0 0
18 1 -2.3997587821850807e+01 -2.0295178337590104e+02 0.0000000000000000e+00 0 0 0
19 1 2.0391688628484786e+02 8.6385261547470677e+01 0.0000000000000000e+00 0 0 0
20 1 9.3314856366704305e+01 1.4035713835231604e+02 0.0000000000000000e+00 0 0 0
21 1 7.2493795369341370e+01 -8.2524031387926343e+01 0.0000000000000000e+00 0 0 0
22 1 5.0916006875481647e+00 -3.3616316938692620e+01 0.0000000000000000e+00 0 0 0
23 1 -2.2243800500841346e+02 3.0240408425900096e+01 0.0000000000000000e+00 0 0 0
24 1 6.2505651511360014e+01 1.7949914009243980e+02 0.0000000000000000e+00 0 0 0
25 1 6.6191207847525348e+01 3.8512112604880883e+01 0.0000000000000000e+00 0 0 0
26 1 2.4611334334252749e+01 9.5681545904654328e+01 0.0000000000000000e+00 0 0 0
27 1 -2.5884417915953276e+02 -1.7156376886154050e+02 0.0000000000000000e+00 0 0 0
28 1 5.7834437516246155e+01 1.3273413367117357e+02 0.0000000000000000e+00 0 0 0
29 1 -1.1604618086760689e+02 -3.4260585891354815e+01 0.0000000000000000e+00 0 0 0
30 1 1.3271584478010384e+01 -1.1221616109814433e+02 0.0000000000000000e+00 0 0 0
31 1 2.4575147346851104e+01 -1.9217976200015394e+02 0.0000000000000000e+00 0 0 0
32 1 1.7129264596902527e+02 -1.5970041708285277e+02 0.0000000000000000e+00 0 0 0

Velocities

1 -2.7119755324779796e-02 -4.7308010843275100e-02 0.0000000000000000e+00
2 -2.7586405027288943e-02 3.0839219791918286e-03 0.0000000000000000e+00
3 -2.6774932718153396e-02 -4.5723789060084008e-02 0.0000000000000000e+00
4 2.6963967142420640e-02 -5.2621546006347365e-02 0.0000000000000000e+00
5 3.9638442842701904e-02 3.4917116407708886e-02 0.0000000000000000e+00
6 4.1926620088424349e-02 -4.3279049476239083e-02 0.0000000000000000e+00
7 3.9005934718481280e-02 -3.0140201551209314e-03 0.0000000000000000e+00
8 -5.0401170358034791e-02 -4.9939276881981631e-02 0.0000000000000000e+00
9 1.7985381132908741e-02 3.5828048528670442e-02 0.0000000000000000e+00
10 -7.9403766304365995e-03 6.2068920081200643e-02 0.0000000000000000e+00
11 -1.3042588884116541e-02 3.7884570415722636e-02 0.0000000000000000e+00
12 3.3098148850476801e-02 -2.4758813553200722e-02 0.0000000000000000e+00
13 8.2524737843171145e-02 -6.2912272792505122e-02 0.0000000000000000e+00
14 4.7029963726155869e-03 4.8134235608020326e-02 0.0000000000000000e+00
15 -8.1039885223206251e-02 4.6986130762053623e-02 0.0000000000000000e+00
16 1.5811556620057649e-02 3.7739398448675736e-02 0.0000000000000000e+00
17 -3.4424788899617975e-02 2.6008820290665473e-02 0.0000000000000000e+00
18 -3.2264587954791139e-02 6.7911509017639815e-02 0.0000000000000000e+00
19 -9.1672006411463568e-03 -2.4545021911258229e-02 0.0000000000000000e+00
20 -1.3442664949027705e-02 -5.3044364602927732e-02 0.0000000000000000e+00
21 -6.5220625207181845e-02 -7.6173292852059940e-02 0.0000000000000000e+00
22 -6.4165897693973057e-03 -3.3036545964422410e-02 0.0000000000000000e+00
23 -6.8187871305436477e-03 -1.0535662081517179e-01 0.0000000000000000e+00
24 1.7883685608961839e-02 4.6780322467827335e-03 0.0000000000000000e+00
25 -4.1973878225101423e-02 -5.4528276070102993e-02 0.0000000000000000e+00
26 -7.2456504167946648e-02 -6.0400168647380972e-02 0.0000000000000000e+00
27 -3.8951098226138542e-02 -6.5783278742436183e-02 0.0000000000000000e+00
28 1.7276416671031754e-02 -5.9327198603697871e-03 0.0000000000000000e+00
29 -8.4697471511997816e-03 -3.1317279784745848e-02 0.0000000000000000e+00
30 -3.1652774664186452e-03 2.0621517439421207e-02 0.0000000000000000e+00
31 7.7095227567305427e-02 -2.7540042430673852e-03 0.0000000000000000e+00
32 3.7562948963561729e-02 -9.6568375309761603e-03 0.0000000000000000e+00
