LAMMPS data file via write_data, version 29 Mar 2019, timestep = 20000000

32 atoms
1 atom types

-1.5000000000000000e+03 1.5000000000000000e+03 xlo xhi
-1.5000000000000000e+03 1.5000000000000000e+03 ylo yhi
-1.5000000000000000e+03 1.5000000000000000e+03 zlo zhi

Masses

1 0.00054858

Pair Coeffs # gauss/cut

1 0.0355436 0 33.6721

Atoms # atomic

1 1 1.5253507284819500e+02 8.7364460319991252e+01 0.0000000000000000e+00 0 0 0
2 1 -2.5492581350002293e+01 2.0543782878511959e+02 0.0000000000000000e+00 0 0 0
3 1 7.6791810892035901e+00 8.0960094190383899e+01 0.0000000000000000e+00 0 0 0
4 1 -5.7971932712662493e+01 -1.6177195970489052e+01 0.0000000000000000e+00 0 0 0
5 1 1.3636294603360119e+02 1.5261516645831850e+02 0.0000000000000000e+00 0 0 0
6 1 -2.8472281504447743e+01 4.0639564210471839e+01 0.0000000000000000e+00 0 0 0
7 1 -2.1921287602395194e+02 2.0143698923166303e+02 0.0000000000000000e+00 0 0 0
8 1 -7.2002575737365433e+01 -4.7878731049564664e+01 0.0000000000000000e+00 0 0 0
9 1 -2.0129413246395364e+02 -1.8874850949617993e+02 0.0000000000000000e+00 0 0 0
10 1 1.4166730526421398e+02 -1.6066632362080514e+02 0.0000000000000000e+00 0 0 0
11 1 9.3173190471562478e+01 -1.0684160974242059e+02 0.0000000000000000e+00 0 0 0
12 1 5.2487428301014397e+01 3.5118592737706322e+01 0.0000000000000000e+00 0 0 0
13 1 -1.7677284546965313e+02 5.3739313975626366e+01 0.0000000000000000e+00 0 0 0
14 1 2.2074010664832724e+02 1.1668834470458233e+02 0.0000000000000000e+00 0 0 0
15 1 1.9880032443980102e+02 -3.4451870883086393e+01 0.0000000000000000e+00 0 0 0
16 1 -8.0463383127917893e+01 8.8500109289612269e+01 0.0000000000000000e+00 0 0 0
17 1 -1.5210248567743822e+01 -1.6734041591501679e+02 0.0000000000000000e+00 0 0 0
18 1 -6.9230379166107284e+01 -6.9777395725924777e+01 0.0000000000000000e+00 0 0 0
19 1 1.7985776342335851e+02 3.5167936431617810e+00 0.0000000000000000e+00 0 0 0
20 1 4.7954489012475641e+01 1.0648847315658755e+02 0.0000000000000000e+00 0 0 0
21 1 1.0895257700087961e+02 -3.8959180754311831e+01 0.0000000000000000e+00 0 0 0
22 1 -7.9481637976939595e+01 3.1251600744464962e+00 0.0000000000000000e+00 0 0 0
23 1 -1.6597789246880211e+02 -4.0862035361069324e+01 0.0000000000000000e+00 0 0 0
24 1 9.2968706107725893e+01 6.8115014466449750e+01 0.0000000000000000e+00 0 0 0
25 1 2.4049955967606095e+01 2.2696160451758910e+01 0.0000000000000000e+00 0 0 0
26 1 1.0774247498615363e+01 1.1829722068306602e+02 0.0000000000000000e+00 0 0 0
27 1 -2.1028374932536349e+02 -1.0092411251976949e+02 0.0000000000000000e+00 0 0 0
28 1 5.8069325121442972e+01 1.4716840193858513e+02 0.0000000000000000e+00 0 0 0
29 1 -9.7211485678356894e+01 -1.0851832785290694e+02 0.0000000000000000e+00 0 0 0
30 1 8.6284438048267148e+01 -9.1120237964382085e+01 0.0000000000000000e+00 0 0 0
31 1 -3.5623831248359011e+01 -1.5788081203240938e+02 0.0000000000000000e+00 0 0 0
32 1 1.3216028430383545e+02 -1.4905363321801997e+02 0.0000000000000000e+00 0 0 0

Velocities

1 -1.9469635336424273e-02 2.1748501043233073e-02 0.0000000000000000e+00
2 -1.4645316641436317e-02 1.4757858564902698e-02 0.0000000000000000e+00
3 3.1082771670393087e-02 1.1774497164480518e-02 0.0000000000000000e+00
4 -6.4542221976394490e-02 1.6388501376016385e-03 0.0000000000000000e+00
5 -5.5887295931945073e-02 -1.4520928740587424e-03 0.0000000000000000e+00
6 -3.2722992210713125e-03 -4.2362775217052472e-02 0.0000000000000000e+00
7 2.7499848479397730e-02 -1.8123870098034289e-02 0.0000000000000000e+00
8 -2.6007359370132783e-02 5.7417867231142491e-04 0.0000000000000000e+00
9 -1.4437127510604355e-02 9.5616694357083202e-03 0.0000000000000000e+00
10 5.5467533642272360e-02 2.4009690496822084e-02 0.0000000000000000e+00
11 -1.2019427078614088e-02 -2.3640399174582088e-02 0.0000000000000000e+00
12 -2.5615557290308923e-02 4.7349199987620536e-02 0.0000000000000000e+00
13 4.6143900784196426e-03 6.6007770643671554e-02 0.0000000000000000e+00
14 -6.3575060834296605e-03 3.9498238909846092e-02 0.0000000000000000e+00
15 1.9932581815798999e-02 1.0528738118824236e-02 0.0000000000000000e+00
16 2.6378740746852879e-02 -4.3270431811637526e-02 0.0000000000000000e+00
17 -3.5482922470104921e-03 8.2683741774714058e-03 0.0000000000000000e+00
18 6.3807427373332545e-02 1.7453664284834337e-02 0.0000000000000000e+00
19 6.2305287490705942e-02 -2.4407258740781937e-02 0.0000000000000000e+00
20 6.4228908819696104e-02 -1.9836853191311562e-03 0.0000000000000000e+00
21 3.5846029062501936e-02 3.6189944243895052e-02 0.0000000000000000e+00
22 3.6114911606620989e-02 5.6695435255631740e-02 0.0000000000000000e+00
23 -2.2545399569802123e-02 -3.1094569429027226e-02 0.0000000000000000e+00
24 -2.9644069010902684e-02 -2.1003653974225055e-02 0.0000000000000000e+00
25 -1.4028705601453088e-02 -3.1528053469797097e-02 0.0000000000000000e+00
26 -3.3361411813531583e-02 3.6442574839629746e-02 0.0000000000000000e+00
27 1.0625115280530435e-02 1.0838253545780033e-03 0.0000000000000000e+00
28 -1.8369341935880655e-02 -4.1002242900638537e-02 0.0000000000000000e+00
29 3.8595236414517529e-02 4.8024657732966457e-02 0.0000000000000000e+00
30 -7.0799993512039913e-03 -3.3118994541196038e-02 0.0000000000000000e+00
31 -3.9189111705248761e-02 -4.6593384957152047e-02 0.0000000000000000e+00
32 -3.1026232720800847e-02 1.7800101297631345e-02 0.0000000000000000e+00
