LAMMPS data file via write_data, version 29 Mar 2019, timestep = 20000000

32 atoms
1 atom types

-1.5000000000000000e+03 1.5000000000000000e+03 xlo xhi
-1.5000000000000000e+03 1.5000000000000000e+03 ylo yhi
-1.5000000000000000e+03 1.5000000000000000e+03 zlo zhi

Masses

1 0.00054858

Pair Coeffs # gauss/cut

1 0.0355436 0 33.6721

Atoms # atomic

1 1 2.3640340067244267e+02 2.9373207498609823e+01 0.0000000000000000e+00 0 0 0
2 1 -1.7676895558860792e+02 7.8615335322510518e+01 0.0000000000000000e+00 0 0 0
3 1 7.5302825108275172e+01 4.3066891592035695e+01 0.0000000000000000e+00 0 0 0
4 1 -6.8036950569487203e+01 9.5122899818293320e+01 0.0000000000000000e+00 0 0 0
5 1 -4.1646454327276771e+01 1.8577461218437639e+02 0.0000000000000000e+00 0 0 0
6 1 -2.1015137401128487e+02 -6.5097040638557587e+01 0.0000000000000000e+00 0 0 0
7 1 9.2821506065784490e+01 1.3200952036584374e+02 0.0000000000000000e+00 0 0 0
8 1 -2.7761214167072300e+01 -2.0546221176823528e+02 0.0000000000000000e+00 0 0 0
9 1 -1.4671462520570537e+02 -4.1957265716299936e+01 0.0000000000000000e+00 0 0 0
10 1 2.6246392278900328e+02 -1.8040259320921663e+02 0.0000000000000000e+00 0 0 0
11 1 1.8653869209316099e+02 4.8461131633117551e+00 0.0000000000000000e+00 0 0 0
12 1 1.2037935534238918e+02 -1.9279092810520208e+01 0.0000000000000000e+00 0 0 0
13 1 -2.2959890195514456e+02 -1.1911558368102612e+02 0.0000000000000000e+00 0 0 0
14 1 1.6606579270453813e+02 2.0150385311747506e+01 0.0000000000000000e+00 0 0 0
15 1 7.8094759499069397e+01 1.2470233064141017e+02 0.0000000000000000e+00 0 0 0
16 1 -2.1147953953638176e+02 5.3528834496262405e+01 0.0000000000000000e+00 0 0 0
17 1 -1.3849896490251231e+02 -1.0291860489941175e+02 0.0000000000000000e+00 0 0 0
18 1 1.6088301673993303e+02 -1.1906500165922868e+02 0.0000000000000000e+00 0 0 0
19 1 1.7401192164283998e+02 1.2335883774263569e+02 0.0000000000000000e+00 0 0 0
20 1 -8.3430934533556240e+01 5.1630162494432845e+01 0.0000000000000000e+00 0 0 0
21 1 1.3506365408482284e+02 -3.7332491595466159e+01 0.0000000000000000e+00 0 0 0
22 1 -1.1857103601921891e+02 3.7029894495993062e+01 0.0000000000000000e+00 0 0 0
23 1 -9.2474551446174691e-01 6.3183516449800962e+01 0.0000000000000000e+00 0 0 0
24 1 6.0007883823143949e+01 -7.4712888289688294e+01 0.0000000000000000e+00 0 0 0
25 1 6.0328513767294119e+01 -1.2484090439495611e+02 0.0000000000000000e+00 0 0 0
26 1 -9.3220326025864217e+00 7.6412094684659166e+01 0.0000000000000000e+00 0 0 0
27 1 -5.5775209147497804e+01 4.5578413827069078e+01 0.0000000000000000e+00 0 0 0
28 1 4.0130368739575680e+01 1.5527911424585598e+01 0.0000000000000000e+00 0 0 0
29 1 -1.3579246455958750e+02 -8.5809798575515003e+01 0.0000000000000000e+00 0 0 0
30 1 -8.9830572937075672e+01 -2.4276586131211391e+02 0.0000000000000000e+00 0 0 0
31 1 -6.4221375995247101e+01 -1.8418299824614894e+02 0.0000000000000000e+00 0 0 0
32 1 -2.8807893522739299e+01 -3.8193736084140198e+01 0.0000000000000000e+00 0 0 0

Velocities

1 9.9345756600804566e-03 -4.1342989320057900e-03 0.0000000000000000e+00
2 -1.1847140013087754e-02 2.0445681280154639e-02 0.0000000000000000e+00
3 2.8223886242114526e-02 4.8651907524971316e-03 0.0000000000000000e+00
4 -6.2651940811580551e-03 -3.6125587694768854e-02 0.0000000000000000e+00
5 -9.7889104320631470e-03 -3.9185650423236894e-03 0.0000000000000000e+00
6 3.0357592329277892e-04 -2.3096700099645158e-02 0.0000000000000000e+00
7 -9.4164560015270668e-03 1.9779158367578306e-02 0.0000000000000000e+00
8 -2.4930267520380349e-02 9.0650341624710969e-03 0.0000000000000000e+00
9 1.3774108524314722e-02 -9.4274561324941813e-03 0.0000000000000000e+00
10 9.2864898189262586e-03 -1.2036003512114339e-02 0.0000000000000000e+00
11 1.4190565059750304e-04 -1.7437870962413858e-02 0.0000000000000000e+00
12 2.0635557519951359e-02 3.3794144872468942e-03 0.0000000000000000e+00
13 1.6311726370082012e-02 1.7375664400458110e-02 0.0000000000000000e+00
14 1.6510523059113807e-02 7.4515750569813782e-03 0.0000000000000000e+00
15 7.0977870496563974e-03 -1.4712362043505022e-02 0.0000000000000000e+00
16 3.2951981318955478e-02 2.3731847380347105e-02 0.0000000000000000e+00
17 1.6316510751887055e-02 8.4240721157383004e-03 0.0000000000000000e+00
18 5.2280594293484537e-03 1.2892750339978687e-02 0.0000000000000000e+00
19 5.3131964883752769e-03 -2.8535568572083886e-03 0.0000000000000000e+00
20 -4.1701740543387189e-03 5.7712050954657928e-04 0.0000000000000000e+00
21 1.5517692872781238e-02 6.2368969643588493e-03 0.0000000000000000e+00
22 -3.4293610646135746e-03 1.2467647934321086e-02 0.0000000000000000e+00
23 8.5322468135848046e-04 -1.2672927123712053e-02 0.0000000000000000e+00
24 9.2712721224188447e-03 3.4715323038112408e-02 0.0000000000000000e+00
25 -2.6035712817556499e-03 7.8153207384128627e-03 0.0000000000000000e+00
26 1.3209451329105046e-02 -2.1619361880612680e-02 0.0000000000000000e+00
27 -4.3371536637404669e-03 2.3596503687396634e-02 0.0000000000000000e+00
28 9.3313657926035031e-03 -1.3794795102695960e-02 0.0000000000000000e+00
29 2.8532747699293846e-02 -1.1609097968113652e-02 0.0000000000000000e+00
30 7.3417481143757211e-03 2.3851079520212813e-03 0.0000000000000000e+00
31 -1.0573848866167270e-02 -1.3627908754221577e-02 0.0000000000000000e+00
32 -8.0244349667014155e-03 1.6160186150239307e-02 0.0000000000000000e+00
