LAMMPS data file via write_data, version 29 Mar 2019, timestep = 20000000

32 atoms
1 atom types

-1.5000000000000000e+03 1.5000000000000000e+03 xlo xhi
-1.5000000000000000e+03 1.5000000000000000e+03 ylo yhi
-1.5000000000000000e+03 1.5000000000000000e+03 zlo zhi

Masses

1 0.00054858

Pair Coeffs # gauss/cut

1 0.0118479 0 33.6721

Atoms # atomic

1 1 4.4005348494780286e+01 1.3391697202268111e+02 0.0000000000000000e+00 0 0 0
2 1 3.9949488418300767e+01 1.3778618217062812e+01 0.0000000000000000e+00 0 0 0
3 1 5.7689795344878753e+01 -5.4183541011482639e+01 0.0000000000000000e+00 0 0 0
4 1 2.1879153387854238e+01 -8.4045080964337828e+01 0.0000000000000000e+00 0 0 0
5 1 -7.4844086493436592e+01 -8.9632957383135576e+01 0.0000000000000000e+00 0 0 0
6 1 -9.7412513055231884e+01 -7.4680772470015910e+01 0.0000000000000000e+00 0 0 0
7 1 9.1596699513979445e+01 -1.0981182777664995e+02 0.0000000000000000e+00 0 0 0
8 1 6.3528501392040539e+01 -9.8053116489359965e+01 0.0000000000000000e+00 0 0 0
9 1 4.8299600796009692e+00 4.8601581738540972e+01 0.0000000000000000e+00 0 0 0
10 1 -5.7700775148390719e+01 4.5197010135510354e+01 0.0000000000000000e+00 0 0 0
11 1 3.1691997592905722e+01 1.0600407543390695e+02 0.0000000000000000e+00 0 0 0
12 1 2.4698224356327945e+01 -9.5300347660775188e+01 0.0000000000000000e+00 0 0 0
13 1 4.6883185779106142e+01 -2.7731690225477781e+00 0.0000000000000000e+00 0 0 0
14 1 -2.7046345693964344e+01 -3.5911364096853873e+01 0.0000000000000000e+00 0 0 0
15 1 4.3148287286198794e+01 5.9408039613549191e+00 0.0000000000000000e+00 0 0 0
16 1 1.6347785477562508e+02 -1.9805264370207787e+01 0.0000000000000000e+00 0 0 0
17 1 7.0652652901022734e+01 3.5031767925595155e+01 0.0000000000000000e+00 0 0 0
18 1 1.2725281168786042e+02 -1.4006946785272051e+01 0.0000000000000000e+00 0 0 0
19 1 -8.7822253280931875e+01 4.2086658714464640e+01 0.0000000000000000e+00 0 0 0
20 1 -2.4320451282975512e+02 2.0608525158521090e+01 0.0000000000000000e+00 0 0 0
21 1 1.1124717790672469e+02 -1.1407959102015197e+02 0.0000000000000000e+00 0 0 0
22 1 -2.8444219912461314e+01 1.8764729723742369e+02 0.0000000000000000e+00 0 0 0
23 1 -1.2889851560731449e+02 9.4765690303717633e+01 0.0000000000000000e+00 0 0 0
24 1 2.1739894715274044e+01 9.3521629130072341e+01 0.0000000000000000e+00 0 0 0
25 1 6.6918917438573459e+01 8.0655265835502959e+01 0.0000000000000000e+00 0 0 0
26 1 3.5837647042381249e+01 -4.8000420013592496e+01 0.0000000000000000e+00 0 0 0
27 1 -5.0279135054451615e+01 7.4822102329505256e+01 0.0000000000000000e+00 0 0 0
28 1 1.3421164054242408e+02 9.7321658794104678e+01 0.0000000000000000e+00 0 0 0
29 1 5.2208212875135629e+01 1.1964814845550195e+02 0.0000000000000000e+00 0 0 0
30 1 2.1501461131729056e+02 -6.5543697644048722e+00 0.0000000000000000e+00 0 0 0
31 1 -2.6727946356061633e+01 3.8654076548386831e+00 0.0000000000000000e+00 0 0 0
32 1 -3.4627720230678563e+01 -1.2275153347843867e+02 0.0000000000000000e+00 0 0 0

Velocities

1 3.5310907775320819e-03 6.2180093302909153e-04 0.0000000000000000e+00
2 -1.0124128025434628e-03 1.6734322106306571e-02 0.0000000000000000e+00
3 7.9739245756083842e-03 4.9361574233536378e-03 0.0000000000000000e+00
4 -7.6078070545568324e-03 -5.7590146765373815e-03 0.0000000000000000e+00
5 1.7291155088810514e-02 -1.2210790539530997e-02 0.0000000000000000e+00
6 2.3730191447726584e-03 -2.2582876849222069e-02 0.0000000000000000e+00
7 1.6065963640374433e-02 -2.7600472524020999e-03 0.0000000000000000e+00
8 3.8185671989059149e-03 1.4043229573598857e-02 0.0000000000000000e+00
9 2.2478850259747572e-02 3.0754316059574066e-03 0.0000000000000000e+00
10 -1.7860127231302821e-02 -1.9436467737582192e-03 0.0000000000000000e+00
11 4.4258127934318292e-03 -1.0077529663533091e-02 0.0000000000000000e+00
12 2.3664440216281942e-02 1.6936139757375068e-02 0.0000000000000000e+00
13 2.0173393217452765e-02 1.7164034722826640e-02 0.0000000000000000e+00
14 3.4715800320223519e-03 -1.8202912963318444e-02 0.0000000000000000e+00
15 -9.7656904348276431e-03 2.7848779489587725e-02 0.0000000000000000e+00
16 -4.5513550482850643e-04 -2.0500025398487731e-02 0.0000000000000000e+00
17 3.3545071824537371e-04 -2.0504072658582558e-02 0.0000000000000000e+00
18 9.8975132714152932e-03 -9.8529179342292141e-03 0.0000000000000000e+00
19 -2.4429590464016500e-02 8.3914139696474183e-03 0.0000000000000000e+00
20 -8.8340746245668990e-03 5.6560683122472673e-03 0.0000000000000000e+00
21 -2.1639602544289414e-03 1.0961241028324544e-02 0.0000000000000000e+00
22 -1.1301968021371048e-02 -2.0300106559980567e-02 0.0000000000000000e+00
23 -2.9884316302532439e-04 -4.4144270656641990e-02 0.0000000000000000e+00
24 -1.7620618220222227e-02 -2.4763978836882947e-02 0.0000000000000000e+00
25 -2.0616414726936701e-03 9.9090875144417605e-03 0.0000000000000000e+00
26 -8.8696889704783979e-03 6.8160321161816735e-04 0.0000000000000000e+00
27 1.8730308337817168e-02 2.0751223949400594e-03 0.0000000000000000e+00
28 -1.5744439952735032e-02 -3.9582109689379492e-03 0.0000000000000000e+00
29 -2.9860810388385355e-03 -9.0712860723306740e-03 0.0000000000000000e+00
30 -1.2424702401287841e-02 5.9192344837636999e-03 0.0000000000000000e+00
31 -3.3118604814929582e-03 -1.9158901988138349e-03 0.0000000000000000e+00
32 -6.0144737113116721e-03 2.8192774173253568e-02 0.0000000000000000e+00
