LAMMPS data file via write_data, version 29 Mar 2019, timestep = 20000000

32 atoms
1 atom types

-1.5000000000000000e+03 1.5000000000000000e+03 xlo xhi
-1.5000000000000000e+03 1.5000000000000000e+03 ylo yhi
-1.5000000000000000e+03 1.5000000000000000e+03 zlo zhi

Masses

1 0.00054858

Pair Coeffs # gauss/cut

1 0.0118479 0 33.6721

Atoms # atomic

1 1 -6.4821676380099163e+01 6.5886221147937889e+01 0.0000000000000000e+00 0 0 0
2 1 -4.0935204936718861e-01 7.4191130914286063e+01 0.0000000000000000e+00 0 0 0
3 1 3.8654139112519459e+01 -1.3493068524439832e+02 0.0000000000000000e+00 0 0 0
4 1 -4.7236380976533518e+01 -3.5514157989381445e+01 0.0000000000000000e+00 0 0 0
5 1 -2.1298291710494840e+02 -8.1832777375267057e+01 0.0000000000000000e+00 0 0 0
6 1 -2.0461388099874057e+02 -3.3578728715096851e+01 0.0000000000000000e+00 0 0 0
7 1 1.4579633615015032e+02 -8.2200513911551809e+01 0.0000000000000000e+00 0 0 0
8 1 6.5178745766743830e+01 -8.1703077026255812e+01 0.0000000000000000e+00 0 0 0
9 1 3.9598492375995825e+01 -1.5058090774193326e+01 0.0000000000000000e+00 0 0 0
10 1 -1.2723800550100907e+02 9.2728442670891809e+01 0.0000000000000000e+00 0 0 0
11 1 6.8411502056279105e+01 7.5997536282079281e+01 0.0000000000000000e+00 0 0 0
12 1 -5.0537546770442717e+01 -1.5670946930205722e+02 0.0000000000000000e+00 0 0 0
13 1 3.2257175250055184e+01 -4.3453692971978825e+01 0.0000000000000000e+00 0 0 0
14 1 -3.6780542014789688e+01 -1.1223754787307040e+02 0.0000000000000000e+00 0 0 0
15 1 -6.3288718090499934e+01 -1.6361321104893645e+02 0.0000000000000000e+00 0 0 0
16 1 1.7216460005601297e+02 4.0238762619225959e+01 0.0000000000000000e+00 0 0 0
17 1 4.6787120562583397e+01 1.3288282961608002e+02 0.0000000000000000e+00 0 0 0
18 1 6.9321217346222241e+01 8.8736581852015220e+01 0.0000000000000000e+00 0 0 0
19 1 -4.8376743451855866e+01 -2.9244587139637126e+00 0.0000000000000000e+00 0 0 0
20 1 -2.0622169391558089e+02 4.5617602881134523e+01 0.0000000000000000e+00 0 0 0
21 1 -2.7279015161356686e+01 -2.0412285365633929e+02 0.0000000000000000e+00 0 0 0
22 1 6.5442726896874674e+01 1.1367630945327153e+02 0.0000000000000000e+00 0 0 0
23 1 -7.8603486269412087e+01 -4.8384341206038304e+00 0.0000000000000000e+00 0 0 0
24 1 -1.8850200486919347e-01 -5.1223311790622930e+01 0.0000000000000000e+00 0 0 0
25 1 7.9950158640297417e+01 1.5174051107306039e+02 0.0000000000000000e+00 0 0 0
26 1 5.5925348768214953e+01 3.5598194433702822e+01 0.0000000000000000e+00 0 0 0
27 1 -8.5703946402023533e+01 8.1804565526978138e+01 0.0000000000000000e+00 0 0 0
28 1 4.2035778196263152e+01 -5.5428846731200451e+01 0.0000000000000000e+00 0 0 0
29 1 1.5829817218657149e+02 2.6665990365649542e+01 0.0000000000000000e+00 0 0 0
30 1 1.2299401063972553e+02 1.5455056104284470e+01 0.0000000000000000e+00 0 0 0
31 1 9.3143479488119141e+00 -1.1167077508463304e+02 0.0000000000000000e+00 0 0 0
32 1 -2.1564643156009637e+00 5.5639600463291856e+00 0.0000000000000000e+00 0 0 0

Velocities

1 -3.7556578481767376e-02 -1.5191191987112586e-02 0.0000000000000000e+00
2 2.6133739512073102e-02 3.2542652970648865e-02 0.0000000000000000e+00
3 -1.2976937782678442e-02 -2.3014313309336074e-03 0.0000000000000000e+00
4 -1.7020315725373610e-02 7.9560345228274210e-03 0.0000000000000000e+00
5 -3.1795368865088533e-02 1.3269714891491152e-02 0.0000000000000000e+00
6 4.5452668378628346e-02 7.5164912928769407e-03 0.0000000000000000e+00
7 -1.9985649746915187e-02 -1.1661163797681994e-02 0.0000000000000000e+00
8 2.3201504140627438e-02 -3.1002515750753513e-02 0.0000000000000000e+00
9 1.4322477853556155e-02 1.8511787637019297e-02 0.0000000000000000e+00
10 -1.6793002911942773e-02 -6.7717221290465356e-03 0.0000000000000000e+00
11 4.1804849429167130e-02 1.2073612326375864e-03 0.0000000000000000e+00
12 -1.4268361943300507e-02 -4.9215994090389039e-03 0.0000000000000000e+00
13 -9.7143544853882675e-03 1.8202305486408814e-02 0.0000000000000000e+00
14 -3.1239682939272098e-03 -1.2197611088239907e-02 0.0000000000000000e+00
15 -1.8953576111947941e-03 -6.8750536524110704e-03 0.0000000000000000e+00
16 2.1855456609322987e-02 -1.8815560102269140e-02 0.0000000000000000e+00
17 2.4102578078215545e-02 -2.6606768110505139e-02 0.0000000000000000e+00
18 -1.0309099192758216e-02 -2.2222960505749335e-02 0.0000000000000000e+00
19 -2.0306593368501904e-02 1.0729392906637443e-03 0.0000000000000000e+00
20 -9.5646938878529914e-04 -8.2160731283723934e-03 0.0000000000000000e+00
21 3.6194437198539285e-02 9.2413052497504703e-03 0.0000000000000000e+00
22 1.2317409803332676e-02 8.7850091905160403e-03 0.0000000000000000e+00
23 -4.7905971807998791e-02 1.7987157425574773e-02 0.0000000000000000e+00
24 7.3573854384697997e-03 2.3677168588062916e-02 0.0000000000000000e+00
25 -3.2864111522879554e-02 5.5676737098754123e-03 0.0000000000000000e+00
26 3.9118537268253558e-03 -1.1541811750074196e-02 0.0000000000000000e+00
27 9.3876301331338313e-03 -4.0824472172264523e-02 0.0000000000000000e+00
28 3.4081165876665726e-03 2.0447267110553790e-02 0.0000000000000000e+00
29 -1.4740901841914910e-02 -1.2473589189688570e-03 0.0000000000000000e+00
30 -2.7708521210946198e-02 -2.4195264650946249e-02 0.0000000000000000e+00
31 -1.0284754631728553e-02 -1.0478268414882357e-02 0.0000000000000000e+00
32 1.8916992489636932e-02 -1.9317600672751671e-02 0.0000000000000000e+00
