LAMMPS data file via write_data, version 29 Mar 2019, timestep = 20000000

32 atoms
1 atom types

-1.5000000000000000e+03 1.5000000000000000e+03 xlo xhi
-1.5000000000000000e+03 1.5000000000000000e+03 ylo yhi
-1.5000000000000000e+03 1.5000000000000000e+03 zlo zhi

Masses

1 0.00054858

Pair Coeffs # gauss/cut

1 0.0355436 0 33.6721

Atoms # atomic

1 1 2.9817276489398796e+02 1.2997871244506561e+02 0.0000000000000000e+00 0 0 0
2 1 -1.9607083559949436e+02 1.5602151563152302e+02 0.0000000000000000e+00 0 0 0
3 1 5.2788956810388001e+01 -8.5557161303278122e+01 0.0000000000000000e+00 0 0 0
4 1 9.8659624948439557e+00 3.6727561159422282e+02 0.0000000000000000e+00 0 0 0
5 1 4.5254114718098670e+01 5.1345984861957795e+01 0.0000000000000000e+00 0 0 0
6 1 -2.1941569270361666e+02 6.2728945788628998e+01 0.0000000000000000e+00 0 0 0
7 1 1.8672330871567490e+02 7.2677228410280037e+01 0.0000000000000000e+00 0 0 0
8 1 -1.6730464232494651e+02 -1.5534881519794516e+02 0.0000000000000000e+00 0 0 0
9 1 -7.5801602631240897e+01 -1.7972988990785529e+02 0.0000000000000000e+00 0 0 0
10 1 2.4214064834335721e+02 -8.2957300148588700e+01 0.0000000000000000e+00 0 0 0
11 1 9.3195125662361960e+01 1.1286357976662947e+02 0.0000000000000000e+00 0 0 0
12 1 -1.7915048594248290e+01 2.5947531554476107e+01 0.0000000000000000e+00 0 0 0
13 1 -1.9385493758977583e+02 -1.2068772162577055e+02 0.0000000000000000e+00 0 0 0
14 1 2.1618065465144142e+02 7.3690339066316795e+01 0.0000000000000000e+00 0 0 0
15 1 -5.3743022819480878e+01 -3.1764988938321679e+01 0.0000000000000000e+00 0 0 0
16 1 -6.1113709145502519e+01 -5.7174013204638612e+01 0.0000000000000000e+00 0 0 0
17 1 -3.0588085699273006e+02 -1.0855173605492651e+02 0.0000000000000000e+00 0 0 0
18 1 1.5971459173732669e+02 -1.9363029042450754e+02 0.0000000000000000e+00 0 0 0
19 1 2.6974669450873044e+01 1.6815635145457915e+02 0.0000000000000000e+00 0 0 0
20 1 9.1605385895135285e+01 -2.4532884547284151e+00 0.0000000000000000e+00 0 0 0
21 1 5.6203028170652019e+01 -1.3621755348486244e+02 0.0000000000000000e+00 0 0 0
22 1 1.1600226522906478e+02 -1.9969045695874104e+01 0.0000000000000000e+00 0 0 0
23 1 -5.5948721825755428e+01 3.2524445435972211e+01 0.0000000000000000e+00 0 0 0
24 1 2.8759861291631091e+02 -6.4852609153746073e+01 0.0000000000000000e+00 0 0 0
25 1 6.0297990246540278e+00 -5.0209876836238877e+01 0.0000000000000000e+00 0 0 0
26 1 -3.7099985763414175e+01 6.9318198582667662e+01 0.0000000000000000e+00 0 0 0
27 1 -7.9237763250917070e+01 1.0954124721596432e+02 0.0000000000000000e+00 0 0 0
28 1 1.4334766003158865e+02 -4.5416779002692962e+01 0.0000000000000000e+00 0 0 0
29 1 -9.8186963102617099e+01 -7.6804743413403699e+01 0.0000000000000000e+00 0 0 0
30 1 -1.0484305774011811e+02 -2.2869796057904210e+02 0.0000000000000000e+00 0 0 0
31 1 8.6406748866185183e+01 -2.1797262234099452e+02 0.0000000000000000e+00 0 0 0
32 1 -9.9627652350451513e+01 1.6434480449049667e+02 0.0000000000000000e+00 0 0 0

Velocities

1 9.3598588614829965e-03 -2.9220052630457580e-03 0.0000000000000000e+00
2 -8.0172653617978564e-03 1.6170325744454561e-03 0.0000000000000000e+00
3 -1.6183437983668850e-02 -1.0889326740037989e-02 0.0000000000000000e+00
4 3.2591342008780104e-02 -1.4042190398216291e-02 0.0000000000000000e+00
5 -2.7414499218503866e-02 2.8439238357807865e-03 0.0000000000000000e+00
6 -2.9969775828486252e-02 2.1585269168107710e-03 0.0000000000000000e+00
7 3.8953119207386271e-03 2.0075409483425514e-02 0.0000000000000000e+00
8 1.6141193936134834e-02 9.8619659127690291e-03 0.0000000000000000e+00
9 1.2803634899279565e-02 1.1480834968102944e-02 0.0000000000000000e+00
10 4.2354976743608601e-03 -1.1884816893252985e-02 0.0000000000000000e+00
11 5.2646318768978621e-03 -1.5139230648797025e-02 0.0000000000000000e+00
12 -2.2265597237696944e-02 -2.1024851823848319e-03 0.0000000000000000e+00
13 2.2591053547885886e-02 -1.2706513307786667e-02 0.0000000000000000e+00
14 -6.4862874681515560e-03 1.0329623630332097e-02 0.0000000000000000e+00
15 -5.6770302622042145e-03 7.3799264039062533e-03 0.0000000000000000e+00
16 -8.0644677853503651e-03 1.9378523862153892e-02 0.0000000000000000e+00
17 -1.3192296024909494e-02 -1.9113888639424863e-02 0.0000000000000000e+00
18 -2.0056251669174152e-03 -2.9973982873615392e-03 0.0000000000000000e+00
19 -1.7500636508651447e-02 -3.0326176033610965e-02 0.0000000000000000e+00
20 2.9063105738016671e-02 -2.7524518766569687e-02 0.0000000000000000e+00
21 3.1634179538240275e-03 2.1864851181089637e-02 0.0000000000000000e+00
22 1.0152766731224887e-02 1.8083795326169324e-02 0.0000000000000000e+00
23 1.9101628342100895e-02 -7.0913436669457364e-03 0.0000000000000000e+00
24 8.9556074728950694e-03 6.0184373143685231e-03 0.0000000000000000e+00
25 -1.2741019481731449e-02 2.5235834639048313e-02 0.0000000000000000e+00
26 -1.0144092477082003e-02 2.8612803587280571e-02 0.0000000000000000e+00
27 9.6366643463564310e-03 -1.5533430225734420e-02 0.0000000000000000e+00
28 2.0448249132085178e-02 3.4625565453609329e-03 0.0000000000000000e+00
29 1.6918619496615151e-02 1.2433224295899364e-02 0.0000000000000000e+00
30 8.5423891892378711e-03 1.8408867559676727e-02 0.0000000000000000e+00
31 -9.4997309584025583e-03 9.4725495284078212e-03 0.0000000000000000e+00
32 1.2256266765437947e-02 -2.0686799019604612e-02 0.0000000000000000e+00
