LAMMPS data file via write_data, version 29 Mar 2019, timestep = 20000000

32 atoms
1 atom types

-1.5000000000000000e+03 1.5000000000000000e+03 xlo xhi
-1.5000000000000000e+03 1.5000000000000000e+03 ylo yhi
-1.5000000000000000e+03 1.5000000000000000e+03 zlo zhi

Masses

1 0.00054858

Pair Coeffs # gauss/cut

1 0.0118479 0 33.6721

Atoms # atomic

1 1 1.0209751272641346e+02 1.4265523472256075e+02 0.0000000000000000e+00 0 0 0
2 1 -1.3131958622013094e+01 4.5369509223686045e+01 0.0000000000000000e+00 0 0 0
3 1 9.0552574840821507e+01 1.6958450186007987e+01 0.0000000000000000e+00 0 0 0
4 1 5.3797949637930316e+01 -6.6459490251013918e+01 0.0000000000000000e+00 0 0 0
5 1 -4.3327814640790173e+01 -1.6765405632108224e+02 0.0000000000000000e+00 0 0 0
6 1 -1.3615674429862818e+02 2.0963806557157707e+01 0.0000000000000000e+00 0 0 0
7 1 1.2320726844389227e+02 -1.6826858012237741e+02 0.0000000000000000e+00 0 0 0
8 1 6.5717140575281789e+01 -1.1852801470674523e+01 0.0000000000000000e+00 0 0 0
9 1 1.5589529147207546e+00 -1.1524987737201206e+01 0.0000000000000000e+00 0 0 0
10 1 -1.2752010288278449e+01 7.8236371492742833e+01 0.0000000000000000e+00 0 0 0
11 1 -2.6830456808502110e+01 -1.1463047188285560e+02 0.0000000000000000e+00 0 0 0
12 1 1.0477851771182826e+02 -6.9343214676313821e+01 0.0000000000000000e+00 0 0 0
13 1 -1.1824577802994595e+02 -1.1711442249641306e+02 0.0000000000000000e+00 0 0 0
14 1 -1.1996477363088314e+02 -2.8701441112489011e+01 0.0000000000000000e+00 0 0 0
15 1 -7.8752437182160193e+01 -1.6774707873663897e+02 0.0000000000000000e+00 0 0 0
16 1 1.2068602677389615e+02 1.1147505295628800e+02 0.0000000000000000e+00 0 0 0
17 1 1.2971239076175488e+02 -1.4936942157764831e+01 0.0000000000000000e+00 0 0 0
18 1 3.2907278030382997e+01 9.2364611010641639e+01 0.0000000000000000e+00 0 0 0
19 1 -8.5129231578289904e+01 3.3517632019062262e+01 0.0000000000000000e+00 0 0 0
20 1 -4.1575821290067218e+01 4.2059603304374669e+01 0.0000000000000000e+00 0 0 0
21 1 -5.4088461584714205e+00 -8.3816927094389911e+01 0.0000000000000000e+00 0 0 0
22 1 -1.0233963397500618e+02 2.2010509707693993e+02 0.0000000000000000e+00 0 0 0
23 1 -1.3119706527430196e+02 -1.4308986291191445e+01 0.0000000000000000e+00 0 0 0
24 1 1.1514876237481566e+02 1.3238366458901717e+02 0.0000000000000000e+00 0 0 0
25 1 1.3777226149053289e+01 4.3960074440190418e+01 0.0000000000000000e+00 0 0 0
26 1 -8.7282995070457915e+01 -3.1427422200086276e+01 0.0000000000000000e+00 0 0 0
27 1 1.2289002300982321e+02 4.6988447179231237e+01 0.0000000000000000e+00 0 0 0
28 1 6.1963856497016231e+01 6.2722435977478860e+01 0.0000000000000000e+00 0 0 0
29 1 1.2427840711262169e+02 -5.5547161062796931e+01 0.0000000000000000e+00 0 0 0
30 1 2.2950718315489314e+02 1.4608178171903294e+01 0.0000000000000000e+00 0 0 0
31 1 4.4874195500599310e+00 1.0302002281839520e+02 0.0000000000000000e+00 0 0 0
32 1 2.5350646445221670e+01 -1.0395473580633546e+02 0.0000000000000000e+00 0 0 0

Velocities

1 1.3486614580011885e-03 -1.9814061401708095e-02 0.0000000000000000e+00
2 5.4078987218927118e-03 1.6751274625636529e-02 0.0000000000000000e+00
3 -9.1129051134032722e-03 1.9412115331932610e-02 0.0000000000000000e+00
4 -1.1440684901184699e-02 -2.3508561566559779e-02 0.0000000000000000e+00
5 8.0545587636773677e-03 1.3588524230330200e-02 0.0000000000000000e+00
6 8.7400806036769235e-03 -3.6355666098135254e-03 0.0000000000000000e+00
7 -1.9767043132506842e-03 6.7298546767206356e-03 0.0000000000000000e+00
8 3.0225910261173855e-02 1.6721074399550440e-02 0.0000000000000000e+00
9 1.6095663425915660e-02 7.4034344869278847e-03 0.0000000000000000e+00
10 -8.8609167218369547e-03 -1.4760865787473555e-03 0.0000000000000000e+00
11 -2.8524553919109163e-03 -6.2088308054476724e-03 0.0000000000000000e+00
12 1.6978590196149623e-03 -1.2714338316618942e-02 0.0000000000000000e+00
13 -5.9418112195990290e-03 -4.2898343560419418e-03 0.0000000000000000e+00
14 -5.1295093510080967e-03 7.7554151618098571e-03 0.0000000000000000e+00
15 9.7763322784341650e-03 -1.2405962973636140e-03 0.0000000000000000e+00
16 -2.2585498792698105e-03 5.2080744581928760e-03 0.0000000000000000e+00
17 8.6849882079486707e-04 8.8401518988811302e-03 0.0000000000000000e+00
18 1.0118118434839528e-02 2.7772450354925722e-03 0.0000000000000000e+00
19 4.7929538408519046e-03 -4.9227085796449150e-03 0.0000000000000000e+00
20 1.1587897987254228e-02 -3.0164166277053497e-02 0.0000000000000000e+00
21 -8.0246366639525682e-03 4.0603794170088409e-04 0.0000000000000000e+00
22 -3.0771026535880833e-02 -5.4237666832644053e-04 0.0000000000000000e+00
23 1.3287916391653278e-02 -1.8749741078440317e-02 0.0000000000000000e+00
24 1.5209708634878784e-02 -1.0070337860544966e-02 0.0000000000000000e+00
25 2.9495186738687527e-02 3.4162099234733563e-03 0.0000000000000000e+00
26 -1.3410095434333531e-02 -6.5329699066468709e-03 0.0000000000000000e+00
27 6.0804101660813037e-03 -2.9278607476775388e-03 0.0000000000000000e+00
28 -1.3536495453673339e-02 8.5148927881731808e-03 0.0000000000000000e+00
29 -1.8946328546218213e-03 2.1755677821126716e-02 0.0000000000000000e+00
30 1.2045048253903489e-02 -8.2099427384215373e-04 0.0000000000000000e+00
31 1.3347636873517416e-02 -9.3775438247064927e-03 0.0000000000000000e+00
32 -3.4998961188455594e-03 -5.1236825980070302e-03 0.0000000000000000e+00
