LAMMPS data file via write_data, version 29 Mar 2019, timestep = 20000000

32 atoms
1 atom types

-1.5000000000000000e+03 1.5000000000000000e+03 xlo xhi
-1.5000000000000000e+03 1.5000000000000000e+03 ylo yhi
-1.5000000000000000e+03 1.5000000000000000e+03 zlo zhi

Masses

1 0.00054858

Pair Coeffs # gauss/cut

1 0.0118479 0 33.6721

Atoms # atomic

1 1 -8.1623729301440395e+00 -7.1417956758279402e+01 0.0000000000000000e+00 0 0 0
2 1 -1.1406165068832964e+01 -7.8512892745137421e+01 0.0000000000000000e+00 0 0 0
3 1 4.7875756761582146e+01 2.9702727357904013e+01 0.0000000000000000e+00 0 0 0
4 1 -4.8373781244792276e+01 -1.3229401479631952e+02 0.0000000000000000e+00 0 0 0
5 1 -8.3312476817311804e+01 -1.9220705969178593e+02 0.0000000000000000e+00 0 0 0
6 1 1.0794059941079563e+00 1.1588320992031026e+01 0.0000000000000000e+00 0 0 0
7 1 1.4097109835012563e+02 -1.3882382140316616e+02 0.0000000000000000e+00 0 0 0
8 1 1.9579528285716112e+01 -1.6636138060771947e+02 0.0000000000000000e+00 0 0 0
9 1 -1.0116458235491187e+02 -9.5113033653392691e+01 0.0000000000000000e+00 0 0 0
10 1 -6.7947110535000633e+01 1.4088540796728859e+02 0.0000000000000000e+00 0 0 0
11 1 1.6987291276754530e+02 1.1789004676353011e+02 0.0000000000000000e+00 0 0 0
12 1 -7.3824273182082038e+01 -1.6430342787465941e+02 0.0000000000000000e+00 0 0 0
13 1 -1.9936864083162309e+01 -3.9871059797324840e+01 0.0000000000000000e+00 0 0 0
14 1 -1.6397387052405847e+02 -1.0974280431570025e+02 0.0000000000000000e+00 0 0 0
15 1 -5.8965358579531774e+01 -3.3688735403499898e+01 0.0000000000000000e+00 0 0 0
16 1 2.9631313711909076e+01 -1.6794547597027656e+02 0.0000000000000000e+00 0 0 0
17 1 7.9564214070265351e+01 7.8703144804237255e+01 0.0000000000000000e+00 0 0 0
18 1 5.4115928160874653e+01 4.5418480438567464e+01 0.0000000000000000e+00 0 0 0
19 1 1.1892948624240570e+02 4.0829767097989503e+01 0.0000000000000000e+00 0 0 0
20 1 -5.8438874074425016e+01 4.1915942175503382e+01 0.0000000000000000e+00 0 0 0
21 1 -1.5951465136986926e+02 3.7302886622845087e+01 0.0000000000000000e+00 0 0 0
22 1 4.1536416360071378e+01 3.1265711460393650e+01 0.0000000000000000e+00 0 0 0
23 1 7.3547097490845033e+01 8.0542143964121934e+01 0.0000000000000000e+00 0 0 0
24 1 -5.4778807791460373e+01 3.3891351096954473e+01 0.0000000000000000e+00 0 0 0
25 1 1.0714055848580169e+02 1.2527948039405425e+02 0.0000000000000000e+00 0 0 0
26 1 7.6478375109065766e+01 -1.2713122737804525e+02 0.0000000000000000e+00 0 0 0
27 1 -9.8950154977693842e+01 4.8783698342930194e+01 0.0000000000000000e+00 0 0 0
28 1 3.3973094634353664e+01 -8.3998369047410279e+01 0.0000000000000000e+00 0 0 0
29 1 1.5082350417776235e+02 -3.6533318069784627e+01 0.0000000000000000e+00 0 0 0
30 1 1.3302657255462151e+02 -4.2101982925353116e+00 0.0000000000000000e+00 0 0 0
31 1 1.1615230283490608e+02 -1.5684676613955881e+02 0.0000000000000000e+00 0 0 0
32 1 -1.8471071314216481e+01 -8.4656427177824973e+00 0.0000000000000000e+00 0 0 0

Velocities

1 -7.8288046073205567e-03 -5.7616401540965326e-03 0.0000000000000000e+00
2 2.7273799214846899e-02 3.5889677234554594e-03 0.0000000000000000e+00
3 -1.9589849283230789e-02 3.4207718795250448e-03 0.0000000000000000e+00
4 -2.3075150982772533e-02 1.1499454224017604e-02 0.0000000000000000e+00
5 1.0194331279937928e-02 3.1790373735758215e-02 0.0000000000000000e+00
6 9.4813470669412713e-03 1.3635633133500080e-02 0.0000000000000000e+00
7 1.4713429822946336e-02 3.5510607239793636e-02 0.0000000000000000e+00
8 3.3817922164123555e-02 -2.3935845403214220e-02 0.0000000000000000e+00
9 -2.7233156995063828e-02 6.2089539795136556e-03 0.0000000000000000e+00
10 3.8499779829866014e-02 -1.9558033443062998e-02 0.0000000000000000e+00
11 1.0136799210167483e-02 -4.6704837202969380e-03 0.0000000000000000e+00
12 -1.6549785559772563e-02 2.7958519036567768e-03 0.0000000000000000e+00
13 4.5583009116120579e-03 -2.5700157400776795e-02 0.0000000000000000e+00
14 -4.6425885860521517e-03 2.9477052365002535e-02 0.0000000000000000e+00
15 1.2117006863893207e-02 5.5012543612710921e-02 0.0000000000000000e+00
16 1.0290425487806846e-02 -1.9663354547097271e-02 0.0000000000000000e+00
17 -6.0783387006060991e-03 -2.4892101896274849e-02 0.0000000000000000e+00
18 -1.7400163366744015e-03 7.8278241624243211e-03 0.0000000000000000e+00
19 -8.2146854392739117e-03 -3.3956741352893373e-02 0.0000000000000000e+00
20 -3.4186515766811067e-02 -7.4648055936215440e-03 0.0000000000000000e+00
21 -4.9181579191159008e-02 -2.8685356597503806e-02 0.0000000000000000e+00
22 1.1205721952582130e-02 2.3475040344589659e-03 0.0000000000000000e+00
23 -9.8058232054804104e-03 -1.7710687500786127e-02 0.0000000000000000e+00
24 -1.6684570902274373e-02 3.4734982046229906e-03 0.0000000000000000e+00
25 2.6443683770504042e-02 4.2268917708525181e-03 0.0000000000000000e+00
26 -2.5039675597088078e-02 -3.6272701130046739e-03 0.0000000000000000e+00
27 -2.1429730247279912e-03 1.3063499780042306e-02 0.0000000000000000e+00
28 -7.0070931027867382e-03 -2.5565454228902006e-02 0.0000000000000000e+00
29 -2.9795373681629034e-03 -3.8403298698168983e-02 0.0000000000000000e+00
30 -9.3581551210772395e-04 -3.5781717783925658e-02 0.0000000000000000e+00
31 3.8393769942832050e-02 -2.1628265692787235e-02 0.0000000000000000e+00
32 1.8084749355947557e-02 4.4272707883169157e-02 0.0000000000000000e+00
