LAMMPS data file via write_data, version 29 Mar 2019, timestep = 20000000

32 atoms
1 atom types

-1.5000000000000000e+03 1.5000000000000000e+03 xlo xhi
-1.5000000000000000e+03 1.5000000000000000e+03 ylo yhi
-1.5000000000000000e+03 1.5000000000000000e+03 zlo zhi

Masses

1 0.00054858

Pair Coeffs # gauss/cut

1 0.0118479 0 33.6721

Atoms # atomic

1 1 -3.3981984294294648e+01 -8.7474153854473101e+01 0.0000000000000000e+00 0 0 0
2 1 -1.3501136821901307e+01 -8.2762561991248717e+01 0.0000000000000000e+00 0 0 0
3 1 2.8116477304173163e+01 6.4830453911754535e+00 0.0000000000000000e+00 0 0 0
4 1 -6.9705659200473676e+01 -2.1636907561981587e+02 0.0000000000000000e+00 0 0 0
5 1 -1.3711828528337904e+02 -1.9181544847595939e+02 0.0000000000000000e+00 0 0 0
6 1 -6.4369329960009395e+01 3.3421208244325499e+01 0.0000000000000000e+00 0 0 0
7 1 1.3349193043183132e+02 -1.5031690038317996e+02 0.0000000000000000e+00 0 0 0
8 1 -1.8837318518305339e+00 -1.8370144389062446e+02 0.0000000000000000e+00 0 0 0
9 1 -4.1358424533299022e+01 -1.1754450497923915e+02 0.0000000000000000e+00 0 0 0
10 1 -8.3574586773390806e+01 1.1141022280892301e+02 0.0000000000000000e+00 0 0 0
11 1 1.8721799101078696e+02 7.0222752566438032e+01 0.0000000000000000e+00 0 0 0
12 1 -4.7892943017605802e+01 -1.3372834361391767e+02 0.0000000000000000e+00 0 0 0
13 1 -7.9323431531823843e+01 3.7255068467068931e+01 0.0000000000000000e+00 0 0 0
14 1 -1.1428942393473274e+02 -1.1550060985359734e+02 0.0000000000000000e+00 0 0 0
15 1 -1.9034790990204179e+01 -2.9387903141304786e+01 0.0000000000000000e+00 0 0 0
16 1 3.3103198522875310e+01 -1.3499063534604852e+02 0.0000000000000000e+00 0 0 0
17 1 4.1593744250355208e-01 1.0919898418752179e+02 0.0000000000000000e+00 0 0 0
18 1 4.9984966952464056e+01 1.0793404933216438e+02 0.0000000000000000e+00 0 0 0
19 1 5.0156857006475661e+01 3.6835468137134036e+01 0.0000000000000000e+00 0 0 0
20 1 -1.6409042974851977e+02 3.6527447472704267e+01 0.0000000000000000e+00 0 0 0
21 1 -1.6287580983557316e+02 -4.4110209532157889e+01 0.0000000000000000e+00 0 0 0
22 1 8.7694461446800659e+01 2.1957224601006875e+01 0.0000000000000000e+00 0 0 0
23 1 1.4298305801594753e+02 1.4204413699955575e+02 0.0000000000000000e+00 0 0 0
24 1 -1.0098417767863513e+02 6.0575388426555293e+01 0.0000000000000000e+00 0 0 0
25 1 7.8006335238246422e+01 1.0878144998097754e+02 0.0000000000000000e+00 0 0 0
26 1 1.5735871475444222e+02 -7.3208015497638513e+01 0.0000000000000000e+00 0 0 0
27 1 -1.0644051402603242e+02 7.3667814145270711e+01 0.0000000000000000e+00 0 0 0
28 1 6.9378159511385491e+01 -7.6753048124165261e+01 0.0000000000000000e+00 0 0 0
29 1 1.8706974743691424e+02 -3.1447128390207205e+01 0.0000000000000000e+00 0 0 0
30 1 1.5910557829096007e+02 2.5297921685869593e+01 0.0000000000000000e+00 0 0 0
31 1 1.3769257188809559e+02 -1.7962587516847788e+02 0.0000000000000000e+00 0 0 0
32 1 9.0524183193568124e+00 -1.4032893860220906e+01 0.0000000000000000e+00 0 0 0

Velocities

1 7.1469931962538603e-03 -9.1383277167183044e-03 0.0000000000000000e+00
2 8.1362685907806244e-03 2.5692510765293688e-02 0.0000000000000000e+00
3 1.6324003404947059e-02 2.7792610409018086e-02 0.0000000000000000e+00
4 -1.5742461591914111e-02 2.6756777919237041e-03 0.0000000000000000e+00
5 6.1055531357676121e-02 -2.0419552383664047e-04 0.0000000000000000e+00
6 -2.4791391198374581e-03 3.0623030988103865e-02 0.0000000000000000e+00
7 5.4038437983871819e-02 1.7036255255997536e-02 0.0000000000000000e+00
8 9.7846470097164816e-03 9.4838953092680968e-04 0.0000000000000000e+00
9 -4.8087091910877601e-02 -7.4528346089639194e-03 0.0000000000000000e+00
10 -2.2557849014659008e-02 -3.8945855024785105e-04 0.0000000000000000e+00
11 -2.3777412258179791e-02 -1.2062502850215160e-02 0.0000000000000000e+00
12 -7.9034227113321861e-03 2.8226120686939082e-02 0.0000000000000000e+00
13 -5.0358554461493239e-02 -5.1913722654214303e-02 0.0000000000000000e+00
14 -2.0423467279016345e-02 1.3837563441205042e-02 0.0000000000000000e+00
15 1.5262477428136887e-02 -4.9708447736658321e-02 0.0000000000000000e+00
16 1.3693870384697732e-02 1.8941698058052764e-02 0.0000000000000000e+00
17 -1.9001512407605135e-02 -3.9814992590255491e-02 0.0000000000000000e+00
18 6.1388516609283308e-02 -2.9792083334981970e-02 0.0000000000000000e+00
19 -1.0649604286398341e-02 3.8005955795047786e-02 0.0000000000000000e+00
20 1.7518997878031586e-02 -3.8147832475169605e-02 0.0000000000000000e+00
21 4.6918745941388678e-03 2.1946648019956713e-02 0.0000000000000000e+00
22 -2.9989051009443237e-02 9.6505163413991776e-03 0.0000000000000000e+00
23 2.5851030087626761e-02 5.4508325643453044e-02 0.0000000000000000e+00
24 1.2191971229977887e-02 3.3135422917676222e-04 0.0000000000000000e+00
25 7.1692042340209391e-03 -2.8874812605899036e-02 0.0000000000000000e+00
26 -2.5384901705088742e-02 -3.4920588248936846e-02 0.0000000000000000e+00
27 3.6601578629038387e-02 -1.3063576855083567e-02 0.0000000000000000e+00
28 4.4725827314751063e-03 -7.6747842987240720e-03 0.0000000000000000e+00
29 -9.6674729765443609e-03 -2.9518553522129242e-02 0.0000000000000000e+00
30 4.4727603849423578e-02 -2.9230057796217758e-03 0.0000000000000000e+00
31 1.3183776772658588e-02 3.0771120587575196e-02 0.0000000000000000e+00
32 4.1846177935089147e-03 1.4769537381867733e-02 0.0000000000000000e+00
