LAMMPS data file via write_data, version 29 Mar 2019, timestep = 20000000

32 atoms
1 atom types

-1.5000000000000000e+03 1.5000000000000000e+03 xlo xhi
-1.5000000000000000e+03 1.5000000000000000e+03 ylo yhi
-1.5000000000000000e+03 1.5000000000000000e+03 zlo zhi

Masses

1 0.00054858

Pair Coeffs # gauss/cut

1 0.0118479 0 33.6721

Atoms # atomic

1 1 -4.2152147453989834e+01 1.4416885731810024e+02 0.0000000000000000e+00 0 0 0
2 1 2.1173178309866653e+01 -1.6073167755127052e+01 0.0000000000000000e+00 0 0 0
3 1 1.2720118249247543e+02 -8.5420214464064827e+01 0.0000000000000000e+00 0 0 0
4 1 -6.5662578207838578e+01 -2.4520469533336495e+01 0.0000000000000000e+00 0 0 0
5 1 -1.3290652827312894e+02 -1.0384528569883889e+02 0.0000000000000000e+00 0 0 0
6 1 -1.0980066101832968e+02 -3.9780133210458153e+01 0.0000000000000000e+00 0 0 0
7 1 1.1453059535746638e+02 -1.5703774749842140e+02 0.0000000000000000e+00 0 0 0
8 1 6.3173752426651369e+01 -1.2417071646186562e+02 0.0000000000000000e+00 0 0 0
9 1 4.7353158184246126e+01 2.8399305932706924e+00 0.0000000000000000e+00 0 0 0
10 1 -2.6882559385502230e+01 1.7011381303384334e+02 0.0000000000000000e+00 0 0 0
11 1 -3.8181842554607130e+01 1.0272974498628531e+02 0.0000000000000000e+00 0 0 0
12 1 -1.2540023787196033e+01 -7.0925514135043159e+01 0.0000000000000000e+00 0 0 0
13 1 3.5656180701075968e+01 1.4622092004651915e+01 0.0000000000000000e+00 0 0 0
14 1 4.9346941477927579e+00 -8.1611576721396247e+01 0.0000000000000000e+00 0 0 0
15 1 1.4195477240332586e+01 -1.6815141258606708e+01 0.0000000000000000e+00 0 0 0
16 1 1.8803140782760840e+02 8.2851509680354418e+00 0.0000000000000000e+00 0 0 0
17 1 7.0883826082476817e+00 1.3668916949144545e+02 0.0000000000000000e+00 0 0 0
18 1 1.1348796842522232e+02 -9.6024212111521692e+00 0.0000000000000000e+00 0 0 0
19 1 -2.5783618208817636e+01 -5.7413994892524499e+01 0.0000000000000000e+00 0 0 0
20 1 -2.0442306472739764e+02 2.8108598740854863e+01 0.0000000000000000e+00 0 0 0
21 1 1.0421898595180844e+01 -1.0793114442587695e+02 0.0000000000000000e+00 0 0 0
22 1 1.0660651356446704e+00 1.4315480458727149e+02 0.0000000000000000e+00 0 0 0
23 1 -7.3819549638911051e+00 1.4826083361892241e+01 0.0000000000000000e+00 0 0 0
24 1 -4.0031855904102827e+01 6.6075901798779322e+00 0.0000000000000000e+00 0 0 0
25 1 1.4702634085461520e+02 1.3608326095196526e+02 0.0000000000000000e+00 0 0 0
26 1 5.1643713039963480e+01 -7.4184580600615348e+01 0.0000000000000000e+00 0 0 0
27 1 -5.9056467066278955e+01 1.5752362985762875e+02 0.0000000000000000e+00 0 0 0
28 1 7.5428847514804076e+01 7.5797929918110128e+01 0.0000000000000000e+00 0 0 0
29 1 1.0120539789198712e+02 1.1996093737630817e+02 0.0000000000000000e+00 0 0 0
30 1 1.8267694615871812e+02 9.0070211498429600e+01 0.0000000000000000e+00 0 0 0
31 1 -7.4069549695916947e+01 -1.0897942059894814e+02 0.0000000000000000e+00 0 0 0
32 1 -3.7615663942487657e+01 -7.5743634608030476e+01 0.0000000000000000e+00 0 0 0

Velocities

1 2.7393068794667540e-02 1.5676303163543820e-02 0.0000000000000000e+00
2 -4.3873338412676564e-03 6.7010919153223407e-03 0.0000000000000000e+00
3 1.8173933539246682e-02 -1.7110938559825319e-04 0.0000000000000000e+00
4 1.5893926452258577e-02 -1.2727539684413737e-02 0.0000000000000000e+00
5 4.0362620595208600e-02 -7.5123498830950599e-04 0.0000000000000000e+00
6 -9.5535734436907535e-03 6.3693464251407270e-03 0.0000000000000000e+00
7 -1.0147188444993639e-02 5.5077716579409481e-03 0.0000000000000000e+00
8 1.0257059026693442e-02 -3.5281225598032488e-03 0.0000000000000000e+00
9 1.2400978255493071e-02 2.7673728277876709e-02 0.0000000000000000e+00
10 1.5597270084448675e-02 -2.3504237804921713e-02 0.0000000000000000e+00
11 -5.9628164013711933e-03 -1.7486793242931512e-02 0.0000000000000000e+00
12 -1.6405682820053814e-02 -2.6884996381165718e-02 0.0000000000000000e+00
13 5.0743094539292093e-03 -2.5364753088926585e-02 0.0000000000000000e+00
14 2.5076657542679364e-03 1.2472493533434999e-02 0.0000000000000000e+00
15 -1.3224784745298370e-02 -3.3898976540866613e-02 0.0000000000000000e+00
16 3.4682811289098475e-02 4.4194764464958259e-03 0.0000000000000000e+00
17 -1.1002261078935349e-02 2.5263572885168922e-02 0.0000000000000000e+00
18 9.7890853740092518e-03 -1.1423460345562905e-02 0.0000000000000000e+00
19 -3.1017373260993470e-03 -1.0875522066756597e-02 0.0000000000000000e+00
20 -1.2930520305597880e-02 1.7481694477666291e-02 0.0000000000000000e+00
21 3.7907356035492726e-03 -1.3787066179967628e-02 0.0000000000000000e+00
22 -2.1197064664823170e-02 -2.2026764438561441e-02 0.0000000000000000e+00
23 1.5903783164558222e-03 -1.8419451157206793e-02 0.0000000000000000e+00
24 -2.2757003766613404e-03 9.2884727522132022e-03 0.0000000000000000e+00
25 1.9058321307215177e-02 3.8463960336737407e-02 0.0000000000000000e+00
26 -2.1422581328818507e-02 5.9284523957423181e-04 0.0000000000000000e+00
27 2.0256430595257172e-02 -7.9867982096971848e-03 0.0000000000000000e+00
28 -1.5125392039063575e-02 -1.8863514324142430e-02 0.0000000000000000e+00
29 -1.5359104198652955e-02 -2.0926756057497397e-02 0.0000000000000000e+00
30 -3.6489339915353339e-03 -4.2287026235635905e-02 0.0000000000000000e+00
31 -2.6214125376866370e-03 -1.8490955088916069e-02 0.0000000000000000e+00
32 1.3178761298133591e-02 -1.8439100309821391e-02 0.0000000000000000e+00
