LAMMPS data file via write_data, version 29 Mar 2019, timestep = 20000000

32 atoms
1 atom types

-1.5000000000000000e+03 1.5000000000000000e+03 xlo xhi
-1.5000000000000000e+03 1.5000000000000000e+03 ylo yhi
-1.5000000000000000e+03 1.5000000000000000e+03 zlo zhi

Masses

1 0.00054858

Pair Coeffs # gauss/cut

1 0.0355436 0 33.6721

Atoms # atomic

1 1 1.8470331604944900e+02 8.9001712829434751e+01 0.0000000000000000e+00 0 0 0
2 1 -1.6737646093588418e+02 1.3812202619803509e+02 0.0000000000000000e+00 0 0 0
3 1 -6.0349967334231298e+00 3.2282568206265758e+01 0.0000000000000000e+00 0 0 0
4 1 -1.3825867799347310e+02 1.8396545834869818e+02 0.0000000000000000e+00 0 0 0
5 1 -5.5922567937794447e+01 2.0383813065343824e+02 0.0000000000000000e+00 0 0 0
6 1 -2.2281703957986625e+02 -8.4078037036142405e+01 0.0000000000000000e+00 0 0 0
7 1 4.1434341080780648e+01 1.8869518005956436e+02 0.0000000000000000e+00 0 0 0
8 1 -9.9010056499988934e+01 -2.7007598415328846e+02 0.0000000000000000e+00 0 0 0
9 1 -9.4300933612529420e+01 -8.9345567704420205e+01 0.0000000000000000e+00 0 0 0
10 1 2.8544510836761293e+02 -1.7951451904150471e+02 0.0000000000000000e+00 0 0 0
11 1 1.5362680520639424e+02 2.0684485149228500e+01 0.0000000000000000e+00 0 0 0
12 1 2.0475622872756523e+02 1.4195898486273236e+01 0.0000000000000000e+00 0 0 0
13 1 -1.5002330657215629e+02 -3.1530193031466720e+01 0.0000000000000000e+00 0 0 0
14 1 1.1107963189949909e+02 4.5821392966230839e+01 0.0000000000000000e+00 0 0 0
15 1 1.2307171797838785e+02 1.2238210113203175e+02 0.0000000000000000e+00 0 0 0
16 1 -2.4471797741992788e+02 4.4065333959044793e+01 0.0000000000000000e+00 0 0 0
17 1 -2.0004405059327692e+02 -1.4633915912686885e+02 0.0000000000000000e+00 0 0 0
18 1 1.9555072725354859e+02 -1.7528585000894284e+02 0.0000000000000000e+00 0 0 0
19 1 2.1048505763725933e+02 1.3735275233848455e+02 0.0000000000000000e+00 0 0 0
20 1 -2.1080748827513780e+01 1.2237855722363173e+02 0.0000000000000000e+00 0 0 0
21 1 1.6479203292157140e+02 -1.2905395777196413e+00 0.0000000000000000e+00 0 0 0
22 1 -8.7321887504926522e+01 -6.9939767642591306e+00 0.0000000000000000e+00 0 0 0
23 1 -1.2039782573407584e+02 5.3562094976015253e+01 0.0000000000000000e+00 0 0 0
24 1 7.0463589576553304e+01 4.7215520906423386e+01 0.0000000000000000e+00 0 0 0
25 1 -7.7059424798786558e-01 -1.3684735393232259e+02 0.0000000000000000e+00 0 0 0
26 1 -4.0301893803337862e+01 6.8333037366935812e+01 0.0000000000000000e+00 0 0 0
27 1 -5.6483791947816215e+01 7.8970468602684718e+01 0.0000000000000000e+00 0 0 0
28 1 7.5440919601298958e+01 7.0506311534396218e+01 0.0000000000000000e+00 0 0 0
29 1 -8.6049219998654550e+01 -1.3537751190651861e+02 0.0000000000000000e+00 0 0 0
30 1 -1.4875831518943735e+02 -2.1902660416805224e+02 0.0000000000000000e+00 0 0 0
31 1 -8.2407013558452221e+01 -1.8356481546726638e+02 0.0000000000000000e+00 0 0 0
32 1 -8.6670262268786864e+00 -5.3499023466998253e+01 0.0000000000000000e+00 0 0 0

Velocities

1 1.8621190406997175e-02 -1.0455723804145976e-03 0.0000000000000000e+00
2 -2.6350668666786915e-02 3.2327662236184609e-04 0.0000000000000000e+00
3 -1.0455509305750982e-02 -1.8049960966576222e-02 0.0000000000000000e+00
4 -1.4539803142684599e-02 -2.0138470658872459e-02 0.0000000000000000e+00
5 -1.5619210715400598e-02 -2.0380006093443911e-02 0.0000000000000000e+00
6 -1.7399623028426243e-02 -2.9871263501402910e-03 0.0000000000000000e+00
7 2.3665447610576730e-03 -6.6060275290022313e-03 0.0000000000000000e+00
8 -1.5625542032486138e-02 7.5585160636343750e-03 0.0000000000000000e+00
9 2.8483693138744012e-03 1.0447211185744128e-02 0.0000000000000000e+00
10 -4.5003372306235707e-03 -3.0070116748047063e-02 0.0000000000000000e+00
11 -1.1604661090069066e-02 -4.6486597581668542e-03 0.0000000000000000e+00
12 1.8108273188616811e-02 -1.1313656715215416e-02 0.0000000000000000e+00
13 -1.3919171483604529e-02 4.4348388014865871e-03 0.0000000000000000e+00
14 -5.0678803527890774e-02 -1.3576456532136303e-03 0.0000000000000000e+00
15 4.2849222254137172e-03 -2.8284606560388791e-02 0.0000000000000000e+00
16 -5.9713878955401367e-03 -1.9030656066055460e-02 0.0000000000000000e+00
17 -1.8133703224633875e-02 -4.8934098059087910e-02 0.0000000000000000e+00
18 -4.2239999983154919e-02 1.9121623264501553e-02 0.0000000000000000e+00
19 -2.5444102912586929e-02 1.4009033623080874e-02 0.0000000000000000e+00
20 2.3626960778931262e-02 1.7601843227530079e-04 0.0000000000000000e+00
21 7.6074001088568977e-03 2.6402148247516240e-02 0.0000000000000000e+00
22 4.7036822286863093e-03 3.1662693908857541e-03 0.0000000000000000e+00
23 -1.7598879420709868e-02 -1.1457902757418408e-02 0.0000000000000000e+00
24 6.4409170759753415e-02 -2.9271435393438593e-02 0.0000000000000000e+00
25 -2.1863656895058824e-02 2.2260842822355346e-02 0.0000000000000000e+00
26 2.3725291177282181e-02 -1.3226757734971175e-02 0.0000000000000000e+00
27 2.3475420420704940e-02 1.0631545391679938e-02 0.0000000000000000e+00
28 1.3072816628858125e-02 1.3537936335763270e-02 0.0000000000000000e+00
29 3.5985708005180736e-02 -2.3189147413885343e-02 0.0000000000000000e+00
30 8.9681595187155894e-03 -3.8376956993736680e-02 0.0000000000000000e+00
31 4.0038217137888226e-03 4.4876250012636197e-03 0.0000000000000000e+00
32 1.2930697978791716e-02 2.9339728557558547e-02 0.0000000000000000e+00
