LAMMPS data file via write_data, version 29 Mar 2019, timestep = 20000000

32 atoms
1 atom types

-1.5000000000000000e+03 1.5000000000000000e+03 xlo xhi
-1.5000000000000000e+03 1.5000000000000000e+03 ylo yhi
-1.5000000000000000e+03 1.5000000000000000e+03 zlo zhi

Masses

1 0.00054858

Pair Coeffs # gauss/cut

1 0.0355436 0 33.6721

Atoms # atomic

1 1 1.7142735790024273e+02 1.6055359978060997e+02 0.0000000000000000e+00 0 0 0
2 1 -1.5908035609039069e+02 1.2444148120610697e+02 0.0000000000000000e+00 0 0 0
3 1 7.3548677780428022e+01 -3.3761500761995087e+01 0.0000000000000000e+00 0 0 0
4 1 -5.5507547237716238e+01 1.7331945003625805e+02 0.0000000000000000e+00 0 0 0
5 1 -4.9748805855674661e+01 1.7480696696107495e+02 0.0000000000000000e+00 0 0 0
6 1 -2.4921501391100725e+02 -9.0266009908640854e+01 0.0000000000000000e+00 0 0 0
7 1 1.8167121872990748e+01 1.6401503534489038e+02 0.0000000000000000e+00 0 0 0
8 1 4.9761755619654444e+00 -1.7142024778935829e+02 0.0000000000000000e+00 0 0 0
9 1 -1.5101822904890943e+02 -1.6173889161219819e+01 0.0000000000000000e+00 0 0 0
10 1 1.5616713850063798e+02 -1.5389265641377847e+02 0.0000000000000000e+00 0 0 0
11 1 1.1049420119035636e+02 -1.4057509530857834e+02 0.0000000000000000e+00 0 0 0
12 1 1.6020352622956142e+02 5.9228913525584737e+01 0.0000000000000000e+00 0 0 0
13 1 -8.5643386259145274e+01 -4.0292691538329471e+01 0.0000000000000000e+00 0 0 0
14 1 1.6044287647724394e+02 6.7275992807178383e+01 0.0000000000000000e+00 0 0 0
15 1 1.4188378612102682e+02 1.5762518168218716e+02 0.0000000000000000e+00 0 0 0
16 1 -2.5035638572315051e+02 6.8071212350632891e+01 0.0000000000000000e+00 0 0 0
17 1 -1.0163630677750841e+02 -2.2033014974014631e+02 0.0000000000000000e+00 0 0 0
18 1 1.5505162702259940e+02 -1.7310226559928947e+02 0.0000000000000000e+00 0 0 0
19 1 1.5836398050321785e+02 1.1075511747301248e+02 0.0000000000000000e+00 0 0 0
20 1 -3.3657101712324632e+01 7.5334884406420656e+01 0.0000000000000000e+00 0 0 0
21 1 1.5059393283473659e+02 -3.8715173771807287e+01 0.0000000000000000e+00 0 0 0
22 1 -7.4193747406546436e+01 -4.7640783136004261e+00 0.0000000000000000e+00 0 0 0
23 1 -7.5300040471609591e+01 9.2531958562249528e+01 0.0000000000000000e+00 0 0 0
24 1 -4.2021667314596067e+00 2.5238226220072207e+01 0.0000000000000000e+00 0 0 0
25 1 -1.0915650533761779e+01 -1.0086954847315488e+02 0.0000000000000000e+00 0 0 0
26 1 -7.5391898998033238e+00 9.0620187746489322e+01 0.0000000000000000e+00 0 0 0
27 1 -1.0528783822910216e+02 5.9227993742115146e+01 0.0000000000000000e+00 0 0 0
28 1 4.7911595626098077e+01 4.9936852873631658e+01 0.0000000000000000e+00 0 0 0
29 1 -1.2563780053506363e+02 -1.0090014205595040e+02 0.0000000000000000e+00 0 0 0
30 1 -1.8601626370510001e+01 -1.5462661938747945e+02 0.0000000000000000e+00 0 0 0
31 1 -1.7763745722497103e+02 -1.3759886009575368e+02 0.0000000000000000e+00 0 0 0
32 1 4.5374566951846589e+00 -1.2410507761734452e+01 0.0000000000000000e+00 0 0 0

Velocities

1 1.5883424970610259e-02 -2.3537376277923287e-02 0.0000000000000000e+00
2 -1.2755027530268958e-02 -1.0668747878352060e-02 0.0000000000000000e+00
3 7.7956590823575530e-03 -8.2675351725446222e-03 0.0000000000000000e+00
4 -7.0161842655842238e-03 1.4340715775319196e-02 0.0000000000000000e+00
5 3.4253625178254522e-03 -1.0281927184529735e-02 0.0000000000000000e+00
6 -5.7228079225704383e-03 1.4494195650125540e-02 0.0000000000000000e+00
7 1.6241006496866221e-02 3.9070590070691032e-02 0.0000000000000000e+00
8 4.9123681143034229e-03 1.7900288095949853e-02 0.0000000000000000e+00
9 3.5042349882355280e-02 -3.8834215294310769e-02 0.0000000000000000e+00
10 5.3279459815024606e-03 -8.8601787406257914e-03 0.0000000000000000e+00
11 -1.1429607119931837e-02 9.6524288183220137e-03 0.0000000000000000e+00
12 -2.5562175289518410e-03 3.0151013841384133e-02 0.0000000000000000e+00
13 1.5089752119974625e-02 -2.7715791736865489e-02 0.0000000000000000e+00
14 -1.5173579782045511e-02 1.8521870810570960e-02 0.0000000000000000e+00
15 -2.8842886624693706e-03 -1.1485418382125101e-02 0.0000000000000000e+00
16 -1.9808967416090686e-02 1.9849715557682470e-02 0.0000000000000000e+00
17 2.2490336934489975e-02 -1.7030039682440615e-02 0.0000000000000000e+00
18 -5.7338407943774332e-03 -2.9289199198823054e-02 0.0000000000000000e+00
19 -2.1960210610846763e-02 3.8387172085234890e-03 0.0000000000000000e+00
20 -1.2958680659394517e-03 1.6470112721684950e-02 0.0000000000000000e+00
21 -1.7770289686126683e-03 -1.4010751315336819e-02 0.0000000000000000e+00
22 -1.0191866104315517e-02 1.0182579493969196e-02 0.0000000000000000e+00
23 -6.0978147095257732e-03 1.2665371830446226e-02 0.0000000000000000e+00
24 1.4824921994944949e-02 7.6638073615004363e-03 0.0000000000000000e+00
25 -1.4821659576343666e-02 -1.8999877210395352e-02 0.0000000000000000e+00
26 1.5554344965101698e-02 1.4603180730432375e-02 0.0000000000000000e+00
27 -5.0004260710465862e-02 9.2008353947688210e-03 0.0000000000000000e+00
28 1.6408753915643011e-02 1.3591393959698753e-03 0.0000000000000000e+00
29 -2.2423767450282413e-02 -1.1973998911189696e-02 0.0000000000000000e+00
30 -6.0662383355953046e-04 1.3535102240338193e-03 0.0000000000000000e+00
31 3.6219445520318367e-03 -1.5192110301798062e-02 0.0000000000000000e+00
32 -2.2764226299093797e-02 2.2592500505408147e-02 0.0000000000000000e+00
