LAMMPS data file via write_data, version 29 Mar 2019, timestep = 20000000

32 atoms
1 atom types

-1.5000000000000000e+03 1.5000000000000000e+03 xlo xhi
-1.5000000000000000e+03 1.5000000000000000e+03 ylo yhi
-1.5000000000000000e+03 1.5000000000000000e+03 zlo zhi

Masses

1 0.00054858

Pair Coeffs # gauss/cut

1 0.0355436 0 33.6721

Atoms # atomic

1 1 2.4954537827806143e+02 1.6514645667889917e+02 0.0000000000000000e+00 0 0 0
2 1 -1.8887131715544504e+02 1.7844791633096244e+02 0.0000000000000000e+00 0 0 0
3 1 1.0395836418223610e+02 -1.3915375784503084e+02 0.0000000000000000e+00 0 0 0
4 1 1.5774575692977933e+01 2.6013592390456682e+02 0.0000000000000000e+00 0 0 0
5 1 3.7301271254418246e+01 1.0571017606207256e+02 0.0000000000000000e+00 0 0 0
6 1 -2.0323952704817520e+02 5.4532526438430196e+01 0.0000000000000000e+00 0 0 0
7 1 6.9341416918822432e+01 4.2103713625708508e+01 0.0000000000000000e+00 0 0 0
8 1 -8.3118242860597206e+01 -2.0863567343755793e+02 0.0000000000000000e+00 0 0 0
9 1 -3.0262810904018199e+01 -1.8992691187003348e+02 0.0000000000000000e+00 0 0 0
10 1 3.7560363847009307e+02 -7.6504634525787267e+01 0.0000000000000000e+00 0 0 0
11 1 1.9445374698383162e+02 7.0844739385331820e+01 0.0000000000000000e+00 0 0 0
12 1 9.1619015104050789e+01 -8.9508479071943938e+01 0.0000000000000000e+00 0 0 0
13 1 -2.4919367652099689e+02 -6.4769185339709203e+00 0.0000000000000000e+00 0 0 0
14 1 1.7176957906422459e+02 7.1330385366864588e+00 0.0000000000000000e+00 0 0 0
15 1 -6.6495635419195636e+01 -1.2474268185821593e+01 0.0000000000000000e+00 0 0 0
16 1 -1.0208265103711403e+02 -3.2778789210029316e+01 0.0000000000000000e+00 0 0 0
17 1 -2.3271306198245830e+02 -1.7245080676670810e+02 0.0000000000000000e+00 0 0 0
18 1 1.1272976154726481e+02 -1.7923981329370073e+02 0.0000000000000000e+00 0 0 0
19 1 1.0608103657526847e+02 2.2055200337432672e+02 0.0000000000000000e+00 0 0 0
20 1 -4.4399945450446072e+00 -2.2065336218250934e+01 0.0000000000000000e+00 0 0 0
21 1 2.0091863128235934e+02 -1.4788948137158175e+02 0.0000000000000000e+00 0 0 0
22 1 -1.8580087943404266e+01 -6.2265098863314989e+01 0.0000000000000000e+00 0 0 0
23 1 2.4412194910266962e+01 8.4631945761834572e+01 0.0000000000000000e+00 0 0 0
24 1 7.1943670985954881e+01 -6.8645718763110196e+01 0.0000000000000000e+00 0 0 0
25 1 3.7345029522221772e+01 -4.3374058313735837e+01 0.0000000000000000e+00 0 0 0
26 1 7.1887624952167272e+01 1.6385856976241988e+02 0.0000000000000000e+00 0 0 0
27 1 -1.0985131166412833e+02 5.3420343127122628e+01 0.0000000000000000e+00 0 0 0
28 1 9.5918589607453100e+01 -6.1913572151366644e+01 0.0000000000000000e+00 0 0 0
29 1 -1.0967414797718878e+02 -1.1937664403232402e+02 0.0000000000000000e+00 0 0 0
30 1 -1.5407277263324366e+02 -2.5830091406270509e+02 0.0000000000000000e+00 0 0 0
31 1 1.6882186454408753e+01 -1.8513640982646697e+02 0.0000000000000000e+00 0 0 0
32 1 -7.2711505094624854e+01 1.6305994974478904e+02 0.0000000000000000e+00 0 0 0

Velocities

1 1.1491732337637493e-03 6.9838726914946631e-03 0.0000000000000000e+00
2 7.8764048590346056e-03 3.2430480596791537e-02 0.0000000000000000e+00
3 -2.0529048364604542e-02 2.2331843227833752e-02 0.0000000000000000e+00
4 2.9678154439349857e-02 9.4411213167161449e-03 0.0000000000000000e+00
5 -3.5826296379250621e-03 9.6115156165833635e-03 0.0000000000000000e+00
6 2.3449144924990444e-02 3.5917207787151276e-03 0.0000000000000000e+00
7 -2.7136594185169639e-03 -8.8423205212384039e-03 0.0000000000000000e+00
8 -3.8120201837835198e-03 1.1553121839099597e-02 0.0000000000000000e+00
9 -4.9238472756802983e-03 -6.2679863258563841e-03 0.0000000000000000e+00
10 1.4751305951166171e-02 3.1194818120735553e-02 0.0000000000000000e+00
11 1.7836010273776296e-02 2.9457271366376450e-02 0.0000000000000000e+00
12 5.6689551844740782e-03 7.8755908904543405e-03 0.0000000000000000e+00
13 -1.8236560410595071e-02 2.1713988745964037e-02 0.0000000000000000e+00
14 1.4099568328119420e-02 1.0790890043455853e-02 0.0000000000000000e+00
15 3.1675300426015421e-02 -1.3096203662977488e-02 0.0000000000000000e+00
16 -1.4772715945578014e-02 -1.7046472397538964e-02 0.0000000000000000e+00
17 -8.0886778825404564e-03 2.7148059572559339e-02 0.0000000000000000e+00
18 1.2156102732969623e-02 -5.8217826801896886e-03 0.0000000000000000e+00
19 -2.0612140879156661e-03 -1.0810384537783850e-02 0.0000000000000000e+00
20 -2.1242753213813376e-02 -1.0512150349690663e-02 0.0000000000000000e+00
21 -7.1945458546353903e-03 -2.6045072370995278e-03 0.0000000000000000e+00
22 2.7976420187557503e-02 -2.9189738416927857e-02 0.0000000000000000e+00
23 2.3747514957560268e-02 -9.8789220900958093e-03 0.0000000000000000e+00
24 1.2147282940478513e-02 -3.9953201476723337e-03 0.0000000000000000e+00
25 -4.4975790559151508e-03 1.6147925855366507e-02 0.0000000000000000e+00
26 -1.3121061680914422e-02 -5.5398182019558227e-02 0.0000000000000000e+00
27 -3.5434697377384611e-03 6.7426627293923460e-03 0.0000000000000000e+00
28 3.5072865981261990e-02 1.4070135749865065e-02 0.0000000000000000e+00
29 -4.9451059016681464e-03 9.4859579132118253e-03 0.0000000000000000e+00
30 -1.2777622159223139e-02 -4.5105849369946101e-03 0.0000000000000000e+00
31 2.0082803023415200e-02 2.4985705093620320e-02 0.0000000000000000e+00
32 -1.7207001059093004e-02 -2.8165818350083423e-03 0.0000000000000000e+00
