LAMMPS data file via write_data, version 29 Mar 2019, timestep = 20000000

32 atoms
1 atom types

-1.5000000000000000e+03 1.5000000000000000e+03 xlo xhi
-1.5000000000000000e+03 1.5000000000000000e+03 ylo yhi
-1.5000000000000000e+03 1.5000000000000000e+03 zlo zhi

Masses

1 0.00054858

Pair Coeffs # gauss/cut

1 0.0118479 0 33.6721

Atoms # atomic

1 1 -3.8539858879571895e+01 1.0275076296128255e+02 0.0000000000000000e+00 0 0 0
2 1 2.6151932769476666e+01 6.2680709243985246e+00 0.0000000000000000e+00 0 0 0
3 1 1.0042998217345216e+02 8.4035311667814749e+00 0.0000000000000000e+00 0 0 0
4 1 4.0801405396825075e+01 -1.0318767247166882e+02 0.0000000000000000e+00 0 0 0
5 1 -4.5359078369667046e+01 -1.2828430213511871e+02 0.0000000000000000e+00 0 0 0
6 1 -1.7437393827800904e+02 -9.6444412221406822e+01 0.0000000000000000e+00 0 0 0
7 1 1.1101474689479211e+01 -3.0492489874880171e+01 0.0000000000000000e+00 0 0 0
8 1 5.8128543302742429e+01 -1.6488908826728462e+01 0.0000000000000000e+00 0 0 0
9 1 9.2777823532123538e+00 1.2103832947873576e+02 0.0000000000000000e+00 0 0 0
10 1 -9.0716915029300523e+01 3.5413130094231576e+01 0.0000000000000000e+00 0 0 0
11 1 -4.2453087561262898e+01 -4.2779533165227825e+01 0.0000000000000000e+00 0 0 0
12 1 1.9356946067895660e+02 -6.3523252439297494e+01 0.0000000000000000e+00 0 0 0
13 1 -1.3482748299337428e+02 -1.4148899749567187e+02 0.0000000000000000e+00 0 0 0
14 1 -1.2868058562757707e+02 -4.7322802375355138e+01 0.0000000000000000e+00 0 0 0
15 1 1.0553141413634506e+02 -1.2907768990418344e+02 0.0000000000000000e+00 0 0 0
16 1 1.4448461298380141e+02 7.7518609183500530e+01 0.0000000000000000e+00 0 0 0
17 1 2.4039164027538339e+02 -4.1865944765318845e+00 0.0000000000000000e+00 0 0 0
18 1 1.2669696484073484e+02 7.9198142204041076e+01 0.0000000000000000e+00 0 0 0
19 1 -5.9548073722116406e+01 1.9491595840176331e+01 0.0000000000000000e+00 0 0 0
20 1 -5.3376041862299481e+01 1.4591048109820665e+02 0.0000000000000000e+00 0 0 0
21 1 -1.2042714807717721e+02 -1.0574499426445942e+02 0.0000000000000000e+00 0 0 0
22 1 -1.5418697824092587e+02 2.0908052635025572e+02 0.0000000000000000e+00 0 0 0
23 1 -4.1692813165716281e+01 3.5613164233826417e+01 0.0000000000000000e+00 0 0 0
24 1 9.1477520188295074e+01 1.5192667688210820e+01 0.0000000000000000e+00 0 0 0
25 1 7.5588266616734586e+01 -5.6917010338356908e+00 0.0000000000000000e+00 0 0 0
26 1 -7.0990945056458003e+01 -5.8952053970629997e+01 0.0000000000000000e+00 0 0 0
27 1 5.6459590726876918e+01 6.8266479428398256e+01 0.0000000000000000e+00 0 0 0
28 1 1.6727633265617264e+01 7.5006426529782601e+01 0.0000000000000000e+00 0 0 0
29 1 1.3025746621161304e+02 -4.1995865125869535e+01 0.0000000000000000e+00 0 0 0
30 1 1.2620715114947677e+02 -1.4670660239484146e+01 0.0000000000000000e+00 0 0 0
31 1 7.2356340798269791e-01 1.5985958326102764e+02 0.0000000000000000e+00 0 0 0
32 1 3.1848295921439487e+01 -7.2399409038825880e+01 0.0000000000000000e+00 0 0 0

Velocities

1 -2.4877352355558882e-03 7.2269768231894137e-03 0.0000000000000000e+00
2 6.0046587559962469e-03 -3.8187322632161299e-03 0.0000000000000000e+00
3 8.7786063440732538e-03 1.9814366111199633e-02 0.0000000000000000e+00
4 -1.7540442926535151e-02 -2.1776903418449862e-02 0.0000000000000000e+00
5 6.7117403447455818e-03 -7.6299382879657877e-03 0.0000000000000000e+00
6 -1.6414605084457638e-02 -1.3587042242684855e-02 0.0000000000000000e+00
7 2.6619878287651500e-03 4.6122229924146739e-03 0.0000000000000000e+00
8 -1.2588753594013584e-02 -2.5835691512267494e-03 0.0000000000000000e+00
9 1.6959041239728568e-02 2.4604888551246588e-03 0.0000000000000000e+00
10 -1.4785348601676457e-02 3.0921826506545682e-03 0.0000000000000000e+00
11 -3.4600426781924855e-02 3.7658050629013992e-02 0.0000000000000000e+00
12 5.7819516362425834e-03 2.1332793801755426e-03 0.0000000000000000e+00
13 -1.5047435780731686e-02 5.0302860225719566e-03 0.0000000000000000e+00
14 1.7268781295203910e-02 1.8821551617685017e-02 0.0000000000000000e+00
15 3.2216691988199370e-03 -2.5147072567737506e-02 0.0000000000000000e+00
16 -1.1644934143912119e-02 -1.6565002028964440e-03 0.0000000000000000e+00
17 2.0395393545691760e-02 1.9135795325630632e-03 0.0000000000000000e+00
18 1.1743216106066382e-02 -4.7770843399842170e-03 0.0000000000000000e+00
19 1.4803726854606240e-02 -3.5248799981384714e-02 0.0000000000000000e+00
20 -3.3211136955138562e-03 2.8998482467373037e-04 0.0000000000000000e+00
21 1.1560016133371273e-02 -3.3713355878427789e-02 0.0000000000000000e+00
22 -4.3160296924583709e-03 6.4131775444174113e-03 0.0000000000000000e+00
23 1.9067332760949577e-02 3.8792062450570593e-03 0.0000000000000000e+00
24 5.6771817272916652e-03 -1.5525191465688324e-03 0.0000000000000000e+00
25 -7.4401476745304300e-03 3.6939320668967443e-03 0.0000000000000000e+00
26 -7.4605699450494911e-03 -1.2554500461078279e-02 0.0000000000000000e+00
27 -6.9347459317739722e-03 -4.2640373403805450e-03 0.0000000000000000e+00
28 1.7106845801438920e-03 1.4293345056943031e-02 0.0000000000000000e+00
29 -3.3031467678646072e-02 1.8696342947495448e-02 0.0000000000000000e+00
30 -6.3250002786272288e-03 -8.1942060581640871e-03 0.0000000000000000e+00
31 2.2889004488585194e-02 1.1334100191178500e-02 0.0000000000000000e+00
32 1.9450987863355574e-02 3.6098681262442334e-03 0.0000000000000000e+00
