LAMMPS data file via write_data, version 29 Mar 2019, timestep = 20000000

32 atoms
1 atom types

-1.5000000000000000e+03 1.5000000000000000e+03 xlo xhi
-1.5000000000000000e+03 1.5000000000000000e+03 ylo yhi
-1.5000000000000000e+03 1.5000000000000000e+03 zlo zhi

Masses

1 0.00054858

Pair Coeffs # gauss/cut

1 0.0355436 0 33.6721

Atoms # atomic

1 1 1.1218398130751481e+02 2.3602718733435271e+01 0.0000000000000000e+00 0 0 0
2 1 -5.3174524588840200e+01 2.0741458638419209e+02 0.0000000000000000e+00 0 0 0
3 1 3.7973679264646940e+01 6.3235412782194274e+01 0.0000000000000000e+00 0 0 0
4 1 -6.6455510845249975e+01 -1.7390436030466592e+01 0.0000000000000000e+00 0 0 0
5 1 1.0241498843636431e+02 1.3949962514045464e+02 0.0000000000000000e+00 0 0 0
6 1 -1.5615929059666524e+01 9.6583872946437168e+01 0.0000000000000000e+00 0 0 0
7 1 -1.6642055241092316e+02 1.9744102717345206e+02 0.0000000000000000e+00 0 0 0
8 1 -5.4285177948493974e+01 -6.2030122950847648e+01 0.0000000000000000e+00 0 0 0
9 1 -2.3448490641108361e+02 -1.6863071732077441e+02 0.0000000000000000e+00 0 0 0
10 1 1.6295350144694146e+02 -1.2812814026420750e+02 0.0000000000000000e+00 0 0 0
11 1 3.0157730734276978e+01 -3.5707180116539902e+01 0.0000000000000000e+00 0 0 0
12 1 1.3272440457618765e+02 -2.4353461722662509e+01 0.0000000000000000e+00 0 0 0
13 1 -1.6321192239555808e+02 4.1006726223604538e+01 0.0000000000000000e+00 0 0 0
14 1 1.8788413807360919e+02 1.2015855009657834e+02 0.0000000000000000e+00 0 0 0
15 1 2.6613954401994715e+02 -3.9401811260983905e+01 0.0000000000000000e+00 0 0 0
16 1 -8.0026588997819047e+01 7.1398504123684177e+01 0.0000000000000000e+00 0 0 0
17 1 6.8109515180214135e+00 -1.8163104229032538e+02 0.0000000000000000e+00 0 0 0
18 1 -9.2023061891472693e+01 -1.0110561340309991e+02 0.0000000000000000e+00 0 0 0
19 1 1.7155255849961938e+02 4.9606521201232916e+01 0.0000000000000000e+00 0 0 0
20 1 8.6465576042319043e+01 1.0974184178316885e+02 0.0000000000000000e+00 0 0 0
21 1 6.9886710475275919e+01 -5.1454130372249999e+01 0.0000000000000000e+00 0 0 0
22 1 -1.2564293638250430e+01 -3.7952438478062291e+01 0.0000000000000000e+00 0 0 0
23 1 -2.1255000642704610e+02 -2.3915926203095097e+01 0.0000000000000000e+00 0 0 0
24 1 2.9208161031458090e+01 2.2724896938368522e+02 0.0000000000000000e+00 0 0 0
25 1 -3.4768340107174063e+00 9.8068963546013364e+01 0.0000000000000000e+00 0 0 0
26 1 4.2354646786657099e+01 1.3245229990987261e+02 0.0000000000000000e+00 0 0 0
27 1 -2.4998007592128258e+02 -1.6848732150899136e+02 0.0000000000000000e+00 0 0 0
28 1 2.0484650246021143e+01 1.8231806235444199e+02 0.0000000000000000e+00 0 0 0
29 1 -1.3257821823515155e+02 -7.2233064031626924e+01 0.0000000000000000e+00 0 0 0
30 1 6.7458064013090109e+01 -1.1385728018877380e+02 0.0000000000000000e+00 0 0 0
31 1 -4.2848132508707565e+01 -1.5848969546092661e+02 0.0000000000000000e+00 0 0 0
32 1 1.4841085622838474e+02 -1.5494851477983380e+02 0.0000000000000000e+00 0 0 0

Velocities

1 -3.4899569975108700e-02 1.7795686779846578e-02 0.0000000000000000e+00
2 2.4018906486373674e-02 1.7198556780529631e-02 0.0000000000000000e+00
3 -3.1538471974482375e-02 -2.2774514401307483e-02 0.0000000000000000e+00
4 -7.5423898989878432e-02 6.4548825202258879e-03 0.0000000000000000e+00
5 2.9059011246368196e-02 -1.6450315644579105e-03 0.0000000000000000e+00
6 1.2763043796981925e-02 5.4871600610433349e-02 0.0000000000000000e+00
7 4.5190326063822651e-02 -7.8344878415087596e-03 0.0000000000000000e+00
8 4.4080370966018960e-02 -1.8892119438196853e-02 0.0000000000000000e+00
9 4.6697840234564995e-03 -2.6050286074377319e-02 0.0000000000000000e+00
10 -2.4833226633250622e-02 -3.2635833902234647e-03 0.0000000000000000e+00
11 2.2867600040385527e-02 -3.7896123504694068e-02 0.0000000000000000e+00
12 6.4505065685193277e-02 2.8723301009666830e-02 0.0000000000000000e+00
13 -8.8920665739531009e-03 4.1450078110170638e-02 0.0000000000000000e+00
14 -6.8513035272379577e-02 -1.8733012335256750e-02 0.0000000000000000e+00
15 2.4210712174674781e-04 -6.4215787446879474e-02 0.0000000000000000e+00
16 1.4727244483283483e-02 -2.1337650659118947e-02 0.0000000000000000e+00
17 4.8305467443199447e-02 2.4251161767049320e-02 0.0000000000000000e+00
18 -1.3730910266136730e-02 -2.9285730206212432e-02 0.0000000000000000e+00
19 -4.8963269052518993e-02 -1.2175155452693025e-02 0.0000000000000000e+00
20 7.9203111824067030e-02 2.4758870541538230e-02 0.0000000000000000e+00
21 -9.6699228908288977e-03 -5.7333932149704385e-02 0.0000000000000000e+00
22 -3.0974141174522883e-04 1.5201081877527681e-02 0.0000000000000000e+00
23 -6.0571627273349670e-03 -3.2523833554071860e-02 0.0000000000000000e+00
24 -4.5646950084975380e-02 6.1271667361213842e-04 0.0000000000000000e+00
25 -1.2528791515442242e-02 2.5220417722998621e-02 0.0000000000000000e+00
26 3.3881551171102413e-02 4.8145913778032167e-03 0.0000000000000000e+00
27 2.5574098961491890e-02 2.5765217242526939e-02 0.0000000000000000e+00
28 1.0251187418912046e-02 -9.8521361308765527e-04 0.0000000000000000e+00
29 -2.6216198535710285e-02 -3.6464475706530657e-03 0.0000000000000000e+00
30 -5.7857522821199110e-02 -2.1954936796082417e-02 0.0000000000000000e+00
31 -1.8781958803574264e-02 -1.5156154125241813e-02 0.0000000000000000e+00
32 1.2113106183942504e-02 3.1048044038355829e-02 0.0000000000000000e+00
