LAMMPS data file via write_data, version 29 Mar 2019, timestep = 20000000

32 atoms
1 atom types

-1.5000000000000000e+03 1.5000000000000000e+03 xlo xhi
-1.5000000000000000e+03 1.5000000000000000e+03 ylo yhi
-1.5000000000000000e+03 1.5000000000000000e+03 zlo zhi

Masses

1 0.00054858

Pair Coeffs # gauss/cut

1 0.0355436 0 33.6721

Atoms # atomic

1 1 9.3949952076181987e+01 1.2418089914715040e+02 0.0000000000000000e+00 0 0 0
2 1 -7.7863445393594361e+01 2.2591511864487899e+02 0.0000000000000000e+00 0 0 0
3 1 -3.9909470169180970e+01 8.4023711734011414e+01 0.0000000000000000e+00 0 0 0
4 1 -6.1849319909780085e+01 -1.9063369928051468e+01 0.0000000000000000e+00 0 0 0
5 1 1.0266728616827382e+02 4.4945016933838502e+01 0.0000000000000000e+00 0 0 0
6 1 -8.5441226663252493e+01 1.7391046009030012e+02 0.0000000000000000e+00 0 0 0
7 1 -6.6195183943462013e+01 1.3847489619078561e+02 0.0000000000000000e+00 0 0 0
8 1 -1.5443687047949365e+02 -7.9836469809071815e+01 0.0000000000000000e+00 0 0 0
9 1 -1.8911591140944705e+02 -1.7885626242190827e+02 0.0000000000000000e+00 0 0 0
10 1 3.7114158513824016e+01 -6.8431570401267720e+01 0.0000000000000000e+00 0 0 0
11 1 1.6067423046818945e+02 -5.2649627860077928e+01 0.0000000000000000e+00 0 0 0
12 1 1.7191452497301728e+02 5.6760286181454518e+00 0.0000000000000000e+00 0 0 0
13 1 -1.3097627179084171e+02 -9.6602068341215315e+00 0.0000000000000000e+00 0 0 0
14 1 1.4757738302129545e+02 1.3502618251305176e+02 0.0000000000000000e+00 0 0 0
15 1 2.8614234222688935e+02 1.2347797780024155e+01 0.0000000000000000e+00 0 0 0
16 1 -2.3304550216184875e+01 1.8244932783286409e+01 0.0000000000000000e+00 0 0 0
17 1 6.6869114813511175e+01 -1.1832117982910636e+02 0.0000000000000000e+00 0 0 0
18 1 2.4350184446812847e+01 -1.6650889377131986e+02 0.0000000000000000e+00 0 0 0
19 1 1.8485645301957055e+02 -1.5862984928924266e+01 0.0000000000000000e+00 0 0 0
20 1 2.5518863078927925e+01 2.2118534404102499e+02 0.0000000000000000e+00 0 0 0
21 1 6.2166543426536897e+01 -7.7884531876347836e+01 0.0000000000000000e+00 0 0 0
22 1 -3.2734468215409500e+01 -1.9247816789863947e+01 0.0000000000000000e+00 0 0 0
23 1 -2.1784191067950121e+02 1.3495701377499654e+02 0.0000000000000000e+00 0 0 0
24 1 -8.9495952868034099e+00 2.4455062459063377e+01 0.0000000000000000e+00 0 0 0
25 1 1.9198483964183953e+02 8.7030002366090244e+01 0.0000000000000000e+00 0 0 0
26 1 5.1188964617784123e+01 -4.1590921142971190e+01 0.0000000000000000e+00 0 0 0
27 1 -1.8773970862429013e+02 -1.5322674548372274e+02 0.0000000000000000e+00 0 0 0
28 1 4.1633844870971309e+01 8.0345662138293136e+01 0.0000000000000000e+00 0 0 0
29 1 -1.1848496163346040e+02 -8.8904905320250208e+01 0.0000000000000000e+00 0 0 0
30 1 -1.1441653766947906e+02 -8.2200897874750694e+01 0.0000000000000000e+00 0 0 0
31 1 -1.0528421812682257e+02 -1.3972633700653111e+02 0.0000000000000000e+00 0 0 0
32 1 2.0015623632194473e+02 -1.5113922164950779e+02 0.0000000000000000e+00 0 0 0

Velocities

1 -1.7314347872886857e-02 -3.4210183021572312e-02 0.0000000000000000e+00
2 9.1896859524306235e-02 2.3984321061636383e-02 0.0000000000000000e+00
3 1.4072260699308861e-01 -6.8894893376356507e-03 0.0000000000000000e+00
4 1.6427877544434460e-02 -1.8941458834691857e-01 0.0000000000000000e+00
5 1.1635657829890705e-01 -2.4007452938268902e-02 0.0000000000000000e+00
6 -1.2267206325544388e-02 -2.2528213080917382e-02 0.0000000000000000e+00
7 9.1887139465121045e-02 -1.2385523182514493e-01 0.0000000000000000e+00
8 -1.3595897265334967e-02 -9.2354346019155129e-03 0.0000000000000000e+00
9 6.6467198819554915e-02 -2.3738685389510412e-02 0.0000000000000000e+00
10 -3.6394706848841729e-03 1.1202052691277310e-02 0.0000000000000000e+00
11 6.5173603264926201e-03 3.0756723988500205e-02 0.0000000000000000e+00
12 5.3366898785295221e-02 -6.1989206970524645e-02 0.0000000000000000e+00
13 3.2048528747334049e-02 -5.0990057901039505e-02 0.0000000000000000e+00
14 -6.9022987356033960e-02 4.5339233417310380e-02 0.0000000000000000e+00
15 5.1882744743062988e-02 6.6597353921487870e-02 0.0000000000000000e+00
16 -1.4842861084617765e-02 -3.9885196612374066e-02 0.0000000000000000e+00
17 -7.8080383482126522e-02 -2.7328884895270491e-02 0.0000000000000000e+00
18 1.7558770399415596e-02 9.7008715639395185e-02 0.0000000000000000e+00
19 6.1204613542375566e-02 -6.3629182382741081e-02 0.0000000000000000e+00
20 9.1848003194727242e-03 -7.8301961447335644e-02 0.0000000000000000e+00
21 2.9775824511144171e-02 6.5380139792213271e-02 0.0000000000000000e+00
22 -5.7735421453622982e-02 9.6197258366383806e-02 0.0000000000000000e+00
23 -4.5902375597065094e-02 -4.1711868320864209e-02 0.0000000000000000e+00
24 -1.2112883539115885e-01 -5.9069055171747493e-02 0.0000000000000000e+00
25 -1.8566952393994805e-03 -8.5511316272991245e-02 0.0000000000000000e+00
26 4.4753873568481636e-02 -8.4537206826554467e-02 0.0000000000000000e+00
27 -6.6755983424258980e-02 7.8100598714866644e-03 0.0000000000000000e+00
28 5.7861314532087336e-02 7.6956803049437805e-02 0.0000000000000000e+00
29 -1.6448865042714825e-02 1.1039354288065591e-01 0.0000000000000000e+00
30 3.6350243296566658e-03 3.2540528167646382e-02 0.0000000000000000e+00
31 6.3938368855252893e-03 -5.8619009659133435e-02 0.0000000000000000e+00
32 3.8812984853710132e-02 -4.9982932834271368e-02 0.0000000000000000e+00
