LAMMPS data file via write_data, version 29 Mar 2019, timestep = 20000000

32 atoms
1 atom types

-1.5000000000000000e+03 1.5000000000000000e+03 xlo xhi
-1.5000000000000000e+03 1.5000000000000000e+03 ylo yhi
-1.5000000000000000e+03 1.5000000000000000e+03 zlo zhi

Masses

1 0.00054858

Pair Coeffs # gauss/cut

1 0.0118479 0 33.6721

Atoms # atomic

1 1 -4.7284708844586902e+01 9.5338451270041432e+01 0.0000000000000000e+00 0 0 0
2 1 5.5638016444467738e+01 -6.9977447783470438e+01 0.0000000000000000e+00 0 0 0
3 1 1.5346256862803097e+02 -1.3325496637215167e+01 0.0000000000000000e+00 0 0 0
4 1 -1.5631760701910351e+00 -7.0438693622139112e+01 0.0000000000000000e+00 0 0 0
5 1 7.0066070421361051e+00 -1.9050816213495446e+02 0.0000000000000000e+00 0 0 0
6 1 -5.3476602374241686e+01 -2.1516018754389684e+01 0.0000000000000000e+00 0 0 0
7 1 -4.8924755701702075e+01 2.6773254972796511e+01 0.0000000000000000e+00 0 0 0
8 1 6.9813109189664758e+01 -7.2520776897675205e+01 0.0000000000000000e+00 0 0 0
9 1 7.7408510837112416e+00 -8.9427537995194371e+01 0.0000000000000000e+00 0 0 0
10 1 -9.7811391237710822e+01 7.9566594523244945e+01 0.0000000000000000e+00 0 0 0
11 1 -1.3636886686654406e+00 2.8977629744197369e+01 0.0000000000000000e+00 0 0 0
12 1 2.3966901114459276e+01 -3.0551049772018652e+00 0.0000000000000000e+00 0 0 0
13 1 2.0722053649992796e+02 -6.7543166455179900e+01 0.0000000000000000e+00 0 0 0
14 1 -5.9537417481435824e+01 -7.8897460452838530e+01 0.0000000000000000e+00 0 0 0
15 1 -2.4495837911227983e+02 -5.4569530650936230e+01 0.0000000000000000e+00 0 0 0
16 1 1.0731448564984190e+02 -1.3578927369309741e+02 0.0000000000000000e+00 0 0 0
17 1 2.4771978625251003e+02 7.8678598963882152e+01 0.0000000000000000e+00 0 0 0
18 1 9.8023318877134045e+01 1.0323397012004411e+02 0.0000000000000000e+00 0 0 0
19 1 1.3279971333747139e+02 8.1447865578918282e+01 0.0000000000000000e+00 0 0 0
20 1 -2.9486149270596343e+01 2.6569049711862711e+01 0.0000000000000000e+00 0 0 0
21 1 1.0623446527078706e+01 1.6409186551538869e+02 0.0000000000000000e+00 0 0 0
22 1 -9.5939060186648817e+01 -1.1778258790634105e+02 0.0000000000000000e+00 0 0 0
23 1 -1.3612958268908633e+02 1.6477530725264589e+02 0.0000000000000000e+00 0 0 0
24 1 -4.7403864822999488e+01 6.7606716994008842e+00 0.0000000000000000e+00 0 0 0
25 1 4.2519731999173423e+01 8.0862504616228833e+01 0.0000000000000000e+00 0 0 0
26 1 5.7615024634584522e+00 -2.0224543909094802e+01 0.0000000000000000e+00 0 0 0
27 1 -2.8807468805373141e+01 -7.5906123732880530e+01 0.0000000000000000e+00 0 0 0
28 1 1.2562604992945257e+01 2.3438491619122819e+00 0.0000000000000000e+00 0 0 0
29 1 1.0587224559209065e+02 9.0491258127134984e+01 0.0000000000000000e+00 0 0 0
30 1 2.0333190437643137e+02 1.2475794430827525e+01 0.0000000000000000e+00 0 0 0
31 1 2.6505211247032247e+02 -6.0359909205346675e+01 0.0000000000000000e+00 0 0 0
32 1 -1.3187819770338643e+02 2.2395484561366200e+02 0.0000000000000000e+00 0 0 0

Velocities

1 1.6628222503220674e-01 2.7559832802539885e-01 0.0000000000000000e+00
2 -1.4741748502173535e-01 2.6750981345628139e-01 0.0000000000000000e+00
3 -1.1908073301978944e-01 -2.9870427991753327e-02 0.0000000000000000e+00
4 1.3180445385790887e-01 -3.4448592682579343e-01 0.0000000000000000e+00
5 2.1257323916548646e-01 -2.0234982510357785e-01 0.0000000000000000e+00
6 -1.6067449690674676e-01 -3.5694254025728356e-01 0.0000000000000000e+00
7 1.9559657045781401e-01 1.5312187999043791e-01 0.0000000000000000e+00
8 -6.8337049358451404e-02 -2.3205313307298608e-01 0.0000000000000000e+00
9 -5.5866481777656969e-02 1.1631425939107118e-01 0.0000000000000000e+00
10 -7.2061699995086409e-02 1.4574541681408779e-01 0.0000000000000000e+00
11 9.2265463752933874e-02 -1.9250165618538723e-01 0.0000000000000000e+00
12 -2.6154445952084482e-01 -2.1590530413404512e-02 0.0000000000000000e+00
13 -6.7727772322187782e-02 6.9118309199196967e-02 0.0000000000000000e+00
14 -4.3427028187529061e-02 4.0073691826509890e-02 0.0000000000000000e+00
15 1.0960307630777445e-01 1.1954677002213898e-01 0.0000000000000000e+00
16 9.8721149856708282e-02 4.6607903291436326e-02 0.0000000000000000e+00
17 4.0750797315158557e-02 3.4296444763148731e-01 0.0000000000000000e+00
18 2.8961942928759482e-01 -2.4136811363624161e-01 0.0000000000000000e+00
19 1.6168724569172296e-01 2.1049806255334047e-01 0.0000000000000000e+00
20 6.8908318240645985e-02 4.1331813252415264e-02 0.0000000000000000e+00
21 -2.3927375779866231e-01 -1.0479581482481843e-02 0.0000000000000000e+00
22 2.1270118261906332e-01 -2.0615015936555139e-01 0.0000000000000000e+00
23 5.2303041171079818e-02 -5.1631117027213159e-02 0.0000000000000000e+00
24 -4.5575348619099829e-02 1.6440092795306338e-01 0.0000000000000000e+00
25 1.4494647705548586e-01 -3.1843558743799116e-01 0.0000000000000000e+00
26 -2.6340313241652209e-02 8.4673958559036616e-02 0.0000000000000000e+00
27 -2.0214177734346750e-02 -5.5564192099982708e-02 0.0000000000000000e+00
28 -6.2481067181120925e-02 -5.5405898562712518e-02 0.0000000000000000e+00
29 -2.6516813697339225e-01 3.0297051642361128e-01 0.0000000000000000e+00
30 -1.2446694271275513e-01 -9.2469900314482351e-02 0.0000000000000000e+00
31 -1.7418872078097364e-01 2.5164552917046640e-01 0.0000000000000000e+00
32 -5.3576575517713249e-02 5.6535640963242491e-02 0.0000000000000000e+00
