LAMMPS data file via write_data, version 29 Mar 2019, timestep = 20000000

32 atoms
1 atom types

-1.5000000000000000e+03 1.5000000000000000e+03 xlo xhi
-1.5000000000000000e+03 1.5000000000000000e+03 ylo yhi
-1.5000000000000000e+03 1.5000000000000000e+03 zlo zhi

Masses

1 0.00054858

Pair Coeffs # gauss/cut

1 0.0355436 0 33.6721

Atoms # atomic

1 1 2.5885337489521123e+02 1.3596452264653055e+02 0.0000000000000000e+00 0 0 0
2 1 -2.0692316267271886e+02 2.0130458880783775e+02 0.0000000000000000e+00 0 0 0
3 1 4.2039235962463742e+01 -1.3795161133903258e+02 0.0000000000000000e+00 0 0 0
4 1 -7.1189579445209176e+01 2.1190006232388740e+02 0.0000000000000000e+00 0 0 0
5 1 3.8964479407734878e+01 1.1670139148350979e+02 0.0000000000000000e+00 0 0 0
6 1 -2.3683913878593802e+02 6.5938240563390707e+01 0.0000000000000000e+00 0 0 0
7 1 7.9238638240103896e+01 5.6422274777843079e+01 0.0000000000000000e+00 0 0 0
8 1 -6.2912505834185545e+01 -2.0569078078450630e+02 0.0000000000000000e+00 0 0 0
9 1 -3.8338936666763260e+01 -1.5000148493221570e+02 0.0000000000000000e+00 0 0 0
10 1 3.9736853311639771e+02 -6.3564635432872961e+01 0.0000000000000000e+00 0 0 0
11 1 1.5742834014826647e+02 1.1596547340172510e+01 0.0000000000000000e+00 0 0 0
12 1 8.1094203212915076e+01 -1.8772790544311906e+02 0.0000000000000000e+00 0 0 0
13 1 -2.4069868276025096e+02 4.3768822967310861e+01 0.0000000000000000e+00 0 0 0
14 1 1.7905715593599447e+02 -2.9765015088780483e+01 0.0000000000000000e+00 0 0 0
15 1 -1.1704951369976317e+01 2.0871211269921766e+00 0.0000000000000000e+00 0 0 0
16 1 -1.4979253141605895e+02 -1.3995488102121914e+01 0.0000000000000000e+00 0 0 0
17 1 -2.0047738124889915e+02 -1.8350395285933595e+02 0.0000000000000000e+00 0 0 0
18 1 1.1095594353556575e+02 -2.2698363714634132e+02 0.0000000000000000e+00 0 0 0
19 1 9.9680049389521287e+01 2.5490709544357730e+02 0.0000000000000000e+00 0 0 0
20 1 -6.9715062309999276e-01 -3.1247000225280463e+01 0.0000000000000000e+00 0 0 0
21 1 1.5533144609848438e+02 -1.1555727442684496e+02 0.0000000000000000e+00 0 0 0
22 1 -2.0078450876904277e+01 9.6212886081698894e+00 0.0000000000000000e+00 0 0 0
23 1 2.4754646680252272e+01 9.0947754127652388e+01 0.0000000000000000e+00 0 0 0
24 1 4.2287146341470802e+01 -7.4082753977135255e+01 0.0000000000000000e+00 0 0 0
25 1 4.9087106826252246e+01 -5.9479871923873525e+01 0.0000000000000000e+00 0 0 0
26 1 -2.3009984214813866e+01 2.2010754752565873e+02 0.0000000000000000e+00 0 0 0
27 1 -9.8866702338009446e+01 5.2936156485213530e+01 0.0000000000000000e+00 0 0 0
28 1 5.1978631250865696e+01 2.1379989535913435e+01 0.0000000000000000e+00 0 0 0
29 1 -9.2639701362984908e+01 -5.8365376927790649e+01 0.0000000000000000e+00 0 0 0
30 1 -1.1372039082023157e+02 -2.8189982032052268e+02 0.0000000000000000e+00 0 0 0
31 1 4.4281283203824717e+00 -1.8314768971484267e+02 0.0000000000000000e+00 0 0 0
32 1 -1.0473191634832651e+02 8.0813502961077134e+01 0.0000000000000000e+00 0 0 0

Velocities

1 1.1006451778483131e-02 -1.9425551761758219e-03 0.0000000000000000e+00
2 -1.8256901845458789e-02 8.7338500695805631e-03 0.0000000000000000e+00
3 4.4735321069357360e-03 8.2024555064264364e-03 0.0000000000000000e+00
4 -3.3690471359443010e-02 4.3998972309207247e-02 0.0000000000000000e+00
5 -7.7550680029180410e-04 2.3832033150545183e-02 0.0000000000000000e+00
6 1.2761569898544127e-02 4.2680677190969629e-03 0.0000000000000000e+00
7 -3.4814788879615845e-02 5.5061089027081877e-03 0.0000000000000000e+00
8 9.0477826062811181e-03 -5.7247633272684622e-03 0.0000000000000000e+00
9 -5.0991521796338556e-03 -2.2507073423801245e-03 0.0000000000000000e+00
10 -1.6518555905562473e-02 1.1466360625352629e-02 0.0000000000000000e+00
11 -8.7850022306493296e-03 1.5828626963961376e-03 0.0000000000000000e+00
12 -1.9841433352043754e-03 -2.9605382977815405e-02 0.0000000000000000e+00
13 1.1893608069603726e-02 2.9992499573568726e-02 0.0000000000000000e+00
14 6.6375672700196659e-03 -1.6342009213019466e-03 0.0000000000000000e+00
15 4.6058059011953537e-03 -3.0540793062382780e-02 0.0000000000000000e+00
16 7.2597642761257938e-04 3.0936276026197884e-04 0.0000000000000000e+00
17 -2.0225867777582678e-03 -7.6228348365726360e-03 0.0000000000000000e+00
18 9.4389915827327413e-03 1.0802967759524364e-02 0.0000000000000000e+00
19 5.8845724434655649e-03 -7.8199407039032352e-03 0.0000000000000000e+00
20 -2.1950394990602862e-02 2.5581091010726479e-02 0.0000000000000000e+00
21 -2.9693523024103760e-02 1.2621656066541167e-02 0.0000000000000000e+00
22 6.0502540833761807e-03 -1.1456853276939282e-02 0.0000000000000000e+00
23 1.3584537662858670e-02 -4.3418389867215905e-03 0.0000000000000000e+00
24 7.1683995321589885e-03 -1.2674481425551691e-02 0.0000000000000000e+00
25 -5.4756443441799996e-03 2.2962866733991579e-03 0.0000000000000000e+00
26 -2.0289795383734927e-03 -2.4551771547230778e-02 0.0000000000000000e+00
27 1.5060892735515639e-02 2.9505935926201362e-03 0.0000000000000000e+00
28 1.3543467458226063e-02 1.3017053134979995e-02 0.0000000000000000e+00
29 -1.1773553332446122e-02 -1.6406463482103714e-02 0.0000000000000000e+00
30 3.0872096340053504e-02 8.3016845475151063e-03 0.0000000000000000e+00
31 1.4093201318072517e-04 1.0488691475265930e-02 0.0000000000000000e+00
32 1.6707110471670568e-02 -6.3925457584993019e-03 0.0000000000000000e+00
