LAMMPS data file via write_data, version 29 Mar 2019, timestep = 20000000

32 atoms
1 atom types

-1.5000000000000000e+03 1.5000000000000000e+03 xlo xhi
-1.5000000000000000e+03 1.5000000000000000e+03 ylo yhi
-1.5000000000000000e+03 1.5000000000000000e+03 zlo zhi

Masses

1 0.00054858

Pair Coeffs # gauss/cut

1 0.0355436 0 33.6721

Atoms # atomic

1 1 2.0689341266264645e+02 8.7748345385553492e+01 0.0000000000000000e+00 0 0 0
2 1 -1.7043007041223819e+02 1.0694321456963023e+02 0.0000000000000000e+00 0 0 0
3 1 1.7695804712973548e+01 -2.5822584909915701e+01 0.0000000000000000e+00 0 0 0
4 1 -8.0283836817688467e+01 7.5496717130587172e+01 0.0000000000000000e+00 0 0 0
5 1 -3.4982527787555739e+01 2.3020058558423162e+02 0.0000000000000000e+00 0 0 0
6 1 -2.3819597414354439e+02 -7.3744665079609163e+01 0.0000000000000000e+00 0 0 0
7 1 4.5360499273314197e+01 1.4031031517121895e+02 0.0000000000000000e+00 0 0 0
8 1 -6.2560838267359131e+01 -2.7651775288024191e+02 0.0000000000000000e+00 0 0 0
9 1 -1.1082411378309354e+02 -5.5026582629068734e+01 0.0000000000000000e+00 0 0 0
10 1 2.2769683671397479e+02 -2.0343698049238682e+02 0.0000000000000000e+00 0 0 0
11 1 1.7589096927303441e+02 -3.1933116027347754e+01 0.0000000000000000e+00 0 0 0
12 1 1.5433563910500888e+02 -1.0146064453431686e+01 0.0000000000000000e+00 0 0 0
13 1 -1.6660598291595821e+02 -8.4225997357245319e+01 0.0000000000000000e+00 0 0 0
14 1 1.1513426713333462e+02 2.3957942066294201e+01 0.0000000000000000e+00 0 0 0
15 1 6.8260376341789609e+01 1.6892342915583026e+02 0.0000000000000000e+00 0 0 0
16 1 -2.3577134375189220e+02 6.4382269860101445e+01 0.0000000000000000e+00 0 0 0
17 1 -1.7495153248620909e+02 -1.3202477645481915e+02 0.0000000000000000e+00 0 0 0
18 1 2.5865118407267022e+02 -1.3120629229324888e+02 0.0000000000000000e+00 0 0 0
19 1 1.5476490715670195e+02 1.7373027248129307e+02 0.0000000000000000e+00 0 0 0
20 1 -9.2450119880875718e+01 1.3058469174913284e+02 0.0000000000000000e+00 0 0 0
21 1 9.8839578503095666e+01 -1.7346661243401854e+01 0.0000000000000000e+00 0 0 0
22 1 -1.2193536387636267e+02 3.1960164763046752e+01 0.0000000000000000e+00 0 0 0
23 1 -1.0025772959588096e+02 3.0295754189167862e+01 0.0000000000000000e+00 0 0 0
24 1 6.2589207050300026e+01 -2.6064196948378012e+01 0.0000000000000000e+00 0 0 0
25 1 5.9844253637073038e+01 -1.3663825374594981e+02 0.0000000000000000e+00 0 0 0
26 1 -3.6025692339530153e+01 1.0519187041404777e+02 0.0000000000000000e+00 0 0 0
27 1 -3.1927462224480752e+01 6.7922228023049016e+01 0.0000000000000000e+00 0 0 0
28 1 4.6340245666197845e+01 1.7902949855709654e+01 0.0000000000000000e+00 0 0 0
29 1 -1.2596068684240647e+02 -1.3433057681265936e+02 0.0000000000000000e+00 0 0 0
30 1 -1.0566778490738946e+02 -2.6682143815603916e+02 0.0000000000000000e+00 0 0 0
31 1 -1.0179916487075697e+02 -1.9593699320356509e+02 0.0000000000000000e+00 0 0 0
32 1 -5.1991673788717037e+01 -6.3889761785572965e+01 0.0000000000000000e+00 0 0 0

Velocities

1 1.7858036265307891e-02 -1.9150333699804788e-03 0.0000000000000000e+00
2 -4.0339458415432114e-02 2.6775366289381826e-02 0.0000000000000000e+00
3 2.6408376915559653e-02 3.0041749447397702e-02 0.0000000000000000e+00
4 -2.9981334246702865e-02 -4.0647107534245781e-02 0.0000000000000000e+00
5 9.0873537964683559e-03 5.8797660351188937e-04 0.0000000000000000e+00
6 7.1555105521836776e-03 1.3231016594123006e-02 0.0000000000000000e+00
7 3.4295137130922818e-02 1.7255023238751360e-02 0.0000000000000000e+00
8 6.1363790183696582e-03 3.5440020773302827e-02 0.0000000000000000e+00
9 -1.2861375254409092e-02 -1.2656377677096027e-02 0.0000000000000000e+00
10 1.0989065375817611e-02 2.8891303116270169e-03 0.0000000000000000e+00
11 1.0147467350476086e-02 4.7496337531960442e-03 0.0000000000000000e+00
12 -3.4656826928422389e-02 1.8771828906476311e-02 0.0000000000000000e+00
13 5.0676910305218655e-02 -8.7142157701133242e-04 0.0000000000000000e+00
14 -1.4626211125826931e-02 3.4876063521119098e-02 0.0000000000000000e+00
15 4.8938310867619302e-02 -9.4488428248511462e-04 0.0000000000000000e+00
16 2.1797575849615033e-03 -3.0319196048280710e-03 0.0000000000000000e+00
17 -1.6775413494821930e-03 1.1565157446157104e-02 0.0000000000000000e+00
18 6.5769164705691231e-03 -4.6708311719365119e-04 0.0000000000000000e+00
19 -8.9224784130716491e-03 1.2938224920132651e-02 0.0000000000000000e+00
20 -1.7881314150271395e-02 -1.5716475245333150e-02 0.0000000000000000e+00
21 -1.1383597129058469e-02 -1.1406607074524360e-02 0.0000000000000000e+00
22 1.5027809582856662e-02 1.5313209726984097e-02 0.0000000000000000e+00
23 3.0012056857475302e-03 3.6748582852630857e-02 0.0000000000000000e+00
24 2.7034839922291623e-02 -3.3263787818881063e-02 0.0000000000000000e+00
25 1.8778332630348119e-02 -3.0433866245391729e-03 0.0000000000000000e+00
26 -4.8174369817510195e-03 -3.7743550836490017e-02 0.0000000000000000e+00
27 -6.3708817237896663e-04 3.2101124461137671e-02 0.0000000000000000e+00
28 1.5260119812030976e-02 -2.7936833452913024e-02 0.0000000000000000e+00
29 2.5295850058416433e-02 5.5877129194120592e-04 0.0000000000000000e+00
30 -8.6842489871254251e-03 3.0444630526361418e-03 0.0000000000000000e+00
31 3.0046090658347492e-03 1.7957318429107690e-02 0.0000000000000000e+00
32 1.5408619104162202e-02 -1.4643698579842310e-02 0.0000000000000000e+00
