LAMMPS data file via write_data, version 29 Mar 2019, timestep = 20000000

32 atoms
1 atom types

-1.5000000000000000e+03 1.5000000000000000e+03 xlo xhi
-1.5000000000000000e+03 1.5000000000000000e+03 ylo yhi
-1.5000000000000000e+03 1.5000000000000000e+03 zlo zhi

Masses

1 0.00054858

Pair Coeffs # gauss/cut

1 0.0118479 0 33.6721

Atoms # atomic

1 1 3.9248641225537078e+01 -1.4541273283766142e+01 0.0000000000000000e+00 0 0 0
2 1 2.1120239128610056e+01 -1.7483929248006103e+02 0.0000000000000000e+00 0 0 0
3 1 1.4907283681790423e+02 2.0773159097051018e+01 0.0000000000000000e+00 0 0 0
4 1 1.7929600603207916e+01 -9.2840733010074430e+01 0.0000000000000000e+00 0 0 0
5 1 -5.2125289811438051e+00 -1.4327877814848517e+02 0.0000000000000000e+00 0 0 0
6 1 -6.4202688854140803e+01 5.4706916200598400e+01 0.0000000000000000e+00 0 0 0
7 1 1.2222392182395971e+02 -1.3988656139422346e+02 0.0000000000000000e+00 0 0 0
8 1 -6.5165548128427915e+00 -1.4182107220076725e+02 0.0000000000000000e+00 0 0 0
9 1 -1.0916150826538205e+02 -5.2296371717315679e+01 0.0000000000000000e+00 0 0 0
10 1 -1.0358305401778848e+01 1.3272449571892832e+02 0.0000000000000000e+00 0 0 0
11 1 1.4703835458407295e+02 1.0098507427422685e+02 0.0000000000000000e+00 0 0 0
12 1 -1.1975270338793482e+02 -2.1053918740723461e+02 0.0000000000000000e+00 0 0 0
13 1 1.2179364116972720e+02 -1.0975163920307442e+02 0.0000000000000000e+00 0 0 0
14 1 -1.8617659610474183e+02 -6.0023814428701520e+01 0.0000000000000000e+00 0 0 0
15 1 -1.1823637132938086e+02 1.5511517917237430e+02 0.0000000000000000e+00 0 0 0
16 1 1.7507481211227908e+01 -1.9685040779164245e+02 0.0000000000000000e+00 0 0 0
17 1 1.4034472193382416e+02 1.5595532903311408e+02 0.0000000000000000e+00 0 0 0
18 1 7.1902695827772448e+01 -4.4839705768805542e+00 0.0000000000000000e+00 0 0 0
19 1 1.0779191676294678e+02 2.9602931456933362e+01 0.0000000000000000e+00 0 0 0
20 1 -7.3895800632941501e+01 -4.5352226761081852e+01 0.0000000000000000e+00 0 0 0
21 1 -1.9390002370985798e+01 -2.3085444504432985e+01 0.0000000000000000e+00 0 0 0
22 1 6.4262740366402271e+00 -1.5156203121995199e+02 0.0000000000000000e+00 0 0 0
23 1 -9.4526523769408428e+01 6.6270197902814317e+01 0.0000000000000000e+00 0 0 0
24 1 -5.4673275658131724e+00 7.3041833316557728e+01 0.0000000000000000e+00 0 0 0
25 1 -2.7563310121821278e+01 2.4017095256817999e+01 0.0000000000000000e+00 0 0 0
26 1 2.2297059537835722e+02 3.5624255250295356e+01 0.0000000000000000e+00 0 0 0
27 1 -1.2878452529524247e+02 3.8943058490226768e+01 0.0000000000000000e+00 0 0 0
28 1 -1.4968827211821043e+01 -5.9005195664599759e+00 0.0000000000000000e+00 0 0 0
29 1 1.5233720701847480e+02 1.1246724940611998e+01 0.0000000000000000e+00 0 0 0
30 1 2.2683719426337549e+02 -1.7529981514554713e+01 0.0000000000000000e+00 0 0 0
31 1 1.9513200973388044e+02 -1.3951058390395892e+02 0.0000000000000000e+00 0 0 0
32 1 -4.1583280048251517e+01 8.3964930589211249e+01 0.0000000000000000e+00 0 0 0

Velocities

1 -3.9463304744696406e-02 -6.7855747412229753e-03 0.0000000000000000e+00
2 -6.7510300317502367e-02 -1.1881910987213113e-04 0.0000000000000000e+00
3 -2.2165954630966385e-02 8.5995894585842989e-02 0.0000000000000000e+00
4 7.5040731511899226e-03 5.5208253676956746e-02 0.0000000000000000e+00
5 7.1585484172676456e-03 -9.9389862281471057e-03 0.0000000000000000e+00
6 9.4818894149067412e-03 1.9770756171132824e-02 0.0000000000000000e+00
7 -1.5054627323478662e-02 2.8299687467526567e-02 0.0000000000000000e+00
8 5.2107358579597703e-02 1.6556197795018549e-02 0.0000000000000000e+00
9 -4.7983268508144140e-02 -2.8211206650705381e-02 0.0000000000000000e+00
10 1.0525643479958831e-02 1.2615844891710576e-02 0.0000000000000000e+00
11 1.4643492106316373e-04 -5.7048438525831940e-02 0.0000000000000000e+00
12 4.3020332753329969e-02 7.4193276632782371e-02 0.0000000000000000e+00
13 2.9515221913315903e-02 1.0917148270397891e-02 0.0000000000000000e+00
14 -1.4298803170906609e-02 2.8367653068737801e-04 0.0000000000000000e+00
15 -6.6106217207167230e-03 -3.9324954154956175e-02 0.0000000000000000e+00
16 -5.3160952519855996e-02 -5.2013990740805108e-02 0.0000000000000000e+00
17 -3.3413792771435566e-02 -3.9697789294396019e-02 0.0000000000000000e+00
18 -3.7634720189198348e-02 -5.1357279582290739e-03 0.0000000000000000e+00
19 -5.4179658235889248e-03 -7.1966100426417365e-03 0.0000000000000000e+00
20 -3.2750565558299659e-02 -5.2651484055358126e-02 0.0000000000000000e+00
21 -4.5918722730135544e-02 6.1951200485410168e-02 0.0000000000000000e+00
22 -1.2411645883378895e-02 -7.2295600054337944e-03 0.0000000000000000e+00
23 9.6216208318487904e-03 6.0673289542716134e-02 0.0000000000000000e+00
24 -6.0560016817776802e-04 -5.5920210997492746e-02 0.0000000000000000e+00
25 2.4137666291447629e-02 1.3412013624738370e-03 0.0000000000000000e+00
26 -8.6001027417459075e-02 2.3440473095135373e-03 0.0000000000000000e+00
27 7.5044776399878707e-02 3.9818473728508538e-02 0.0000000000000000e+00
28 1.1735207760318897e-02 7.3424375677535916e-02 0.0000000000000000e+00
29 -4.0628710500999712e-02 3.8535234479016418e-02 0.0000000000000000e+00
30 -2.6150481887762936e-02 7.0116694774629900e-03 0.0000000000000000e+00
31 5.7484526340276709e-03 8.5924256647301727e-03 0.0000000000000000e+00
32 -1.0994952299628449e-02 1.1184962731730691e-02 0.0000000000000000e+00
