LAMMPS data file via write_data, version 29 Mar 2019, timestep = 20000000

32 atoms
1 atom types

-1.5000000000000000e+03 1.5000000000000000e+03 xlo xhi
-1.5000000000000000e+03 1.5000000000000000e+03 ylo yhi
-1.5000000000000000e+03 1.5000000000000000e+03 zlo zhi

Masses

1 0.00054858

Pair Coeffs # gauss/cut

1 0.0118479 0 33.6721

Atoms # atomic

1 1 5.9099535706765906e+01 9.7486406286119731e+01 0.0000000000000000e+00 0 0 0
2 1 -1.3960350021119228e+00 -1.4867164928380060e+01 0.0000000000000000e+00 0 0 0
3 1 1.2414187720794428e+02 4.9751879799967242e+01 0.0000000000000000e+00 0 0 0
4 1 7.0510809440293798e+01 -9.4501206854102023e+01 0.0000000000000000e+00 0 0 0
5 1 1.2471954604149893e+01 -1.5229502030584607e+02 0.0000000000000000e+00 0 0 0
6 1 -1.4187150360199490e+02 -4.5327228123692997e+01 0.0000000000000000e+00 0 0 0
7 1 8.1716055267853463e+01 -1.6253943729029351e+02 0.0000000000000000e+00 0 0 0
8 1 5.7991320111856098e+01 -5.2270043129599458e+01 0.0000000000000000e+00 0 0 0
9 1 2.3396891605037670e+01 6.1341635675818736e+01 0.0000000000000000e+00 0 0 0
10 1 -7.9251947488251062e+01 9.1482376046017336e+01 0.0000000000000000e+00 0 0 0
11 1 -4.9806414107555959e+01 -5.7734988210555294e+01 0.0000000000000000e+00 0 0 0
12 1 2.0744412898728644e+01 -6.6017588741749805e+01 0.0000000000000000e+00 0 0 0
13 1 -1.2029454909061971e+02 -8.0777417893038006e+01 0.0000000000000000e+00 0 0 0
14 1 -1.0970874039653269e+02 2.5167670930057451e+00 0.0000000000000000e+00 0 0 0
15 1 -6.4938365958019986e+01 -1.6019282827023150e+02 0.0000000000000000e+00 0 0 0
16 1 2.0597191624403590e+02 8.6113966546250907e+01 0.0000000000000000e+00 0 0 0
17 1 1.1589135191616181e+02 4.9917071092300375e+01 0.0000000000000000e+00 0 0 0
18 1 6.1529198128246193e+01 4.6787529911207592e+01 0.0000000000000000e+00 0 0 0
19 1 -1.1176869035702140e+02 2.9920651122569026e+01 0.0000000000000000e+00 0 0 0
20 1 -7.0880213190158187e+01 9.4761744771959812e+01 0.0000000000000000e+00 0 0 0
21 1 3.4430566000910666e+01 -5.9498517212836802e+01 0.0000000000000000e+00 0 0 0
22 1 -1.3420237518961568e+02 1.9400742805813258e+02 0.0000000000000000e+00 0 0 0
23 1 -1.1976802554377583e+02 1.8426163950706989e+01 0.0000000000000000e+00 0 0 0
24 1 1.3692857681928481e+02 1.4041876573729934e+02 0.0000000000000000e+00 0 0 0
25 1 4.0804485010083319e+01 3.7966120517018190e+01 0.0000000000000000e+00 0 0 0
26 1 -6.8445937931893042e+01 -2.5198381950447637e+01 0.0000000000000000e+00 0 0 0
27 1 1.2065308192074586e+02 7.9279092253930173e+01 0.0000000000000000e+00 0 0 0
28 1 7.0488141132063262e+01 4.7875956722143464e+01 0.0000000000000000e+00 0 0 0
29 1 1.5918513522026842e+02 2.0350430532901913e+00 0.0000000000000000e+00 0 0 0
30 1 2.2701199777573444e+02 -8.9887700981697680e+00 0.0000000000000000e+00 0 0 0
31 1 -2.3688088750445750e+01 2.7734834129573159e+01 0.0000000000000000e+00 0 0 0
32 1 2.9903859462554575e+01 -1.4585909407014140e+02 0.0000000000000000e+00 0 0 0

Velocities

1 -1.4366778833351740e-02 -6.8194239876879434e-03 0.0000000000000000e+00
2 -1.7438134239808945e-02 2.0132584387521340e-02 0.0000000000000000e+00
3 9.1120636032946071e-03 7.5108058305681331e-03 0.0000000000000000e+00
4 2.4112865164388703e-04 -1.5349041893793062e-03 0.0000000000000000e+00
5 -1.0285348437258177e-02 -1.6601860751421921e-02 0.0000000000000000e+00
6 -2.1438899530468576e-02 -3.1713842833673827e-03 0.0000000000000000e+00
7 1.2146461629083283e-02 -2.1944004379818860e-03 0.0000000000000000e+00
8 -2.7150294408392013e-02 -1.7850260913910759e-02 0.0000000000000000e+00
9 -2.4849066762362921e-03 -6.0590807273653733e-03 0.0000000000000000e+00
10 1.4174084466844948e-02 -8.0421574828701322e-03 0.0000000000000000e+00
11 -1.3597632318804372e-02 -7.0348613540655177e-04 0.0000000000000000e+00
12 -2.7875053435173790e-02 1.4062665478311290e-03 0.0000000000000000e+00
13 1.6570786592285371e-02 6.0603906738669238e-03 0.0000000000000000e+00
14 3.2087292095537706e-02 -1.1507436727800540e-02 0.0000000000000000e+00
15 -7.3800448806152982e-03 -2.6014568368692873e-02 0.0000000000000000e+00
16 -8.6853158811932302e-03 -7.9772502991313343e-03 0.0000000000000000e+00
17 -9.4883890144256619e-03 -2.7741645910468076e-04 0.0000000000000000e+00
18 -1.3439214217930043e-02 2.9807946165708878e-03 0.0000000000000000e+00
19 1.2032748845817299e-02 8.4451373300424223e-04 0.0000000000000000e+00
20 -5.7240369252263452e-03 1.7305090458991857e-02 0.0000000000000000e+00
21 -1.0858573389015205e-02 2.2574992291127000e-02 0.0000000000000000e+00
22 3.8742502613999547e-03 7.7490087970941875e-03 0.0000000000000000e+00
23 -3.8506563827880604e-03 2.1705782649701143e-02 0.0000000000000000e+00
24 -2.7254796383404046e-02 1.0636920298950098e-02 0.0000000000000000e+00
25 1.2213910499569682e-02 -9.0329002696359871e-03 0.0000000000000000e+00
26 -9.0995604784596552e-03 -7.2490717384726721e-03 0.0000000000000000e+00
27 -1.2890183953280544e-02 1.4879187109026368e-02 0.0000000000000000e+00
28 -6.9331240900500704e-03 5.9662443246085916e-03 0.0000000000000000e+00
29 -1.8010755240267254e-02 1.0526032727449430e-02 0.0000000000000000e+00
30 1.0928032499100029e-02 -7.2221990673559874e-03 0.0000000000000000e+00
31 1.5309795513662424e-02 1.9155389222652097e-02 0.0000000000000000e+00
32 1.3631906634684384e-03 -1.1567719161202758e-02 0.0000000000000000e+00
