LAMMPS data file via write_data, version 29 Mar 2019, timestep = 20000000

32 atoms
1 atom types

-1.5000000000000000e+03 1.5000000000000000e+03 xlo xhi
-1.5000000000000000e+03 1.5000000000000000e+03 ylo yhi
-1.5000000000000000e+03 1.5000000000000000e+03 zlo zhi

Masses

1 0.00054858

Pair Coeffs # gauss/cut

1 0.0118479 0 33.6721

Atoms # atomic

1 1 -8.8088567364320156e+01 -4.3186617753625399e+01 0.0000000000000000e+00 0 0 0
2 1 9.0592569260817640e+01 7.3562942456846230e+01 0.0000000000000000e+00 0 0 0
3 1 -1.4973782847571085e+01 4.7464847888978710e+01 0.0000000000000000e+00 0 0 0
4 1 -6.7991753878516988e+01 -1.2841406818505462e+02 0.0000000000000000e+00 0 0 0
5 1 -1.0706011638021111e+02 -1.4861257596857453e+02 0.0000000000000000e+00 0 0 0
6 1 -4.6503424438013461e+01 3.7502216820323170e+01 0.0000000000000000e+00 0 0 0
7 1 1.4018111423864792e+02 -8.3273129376059828e+01 0.0000000000000000e+00 0 0 0
8 1 2.1739993391298199e+01 -9.7853417201098779e+01 0.0000000000000000e+00 0 0 0
9 1 3.3617067595757391e+01 -1.9671147011112424e+02 0.0000000000000000e+00 0 0 0
10 1 -1.5780618953476890e+00 7.5050100876297392e+01 0.0000000000000000e+00 0 0 0
11 1 1.4678028542102120e+02 3.7603831098765909e+01 0.0000000000000000e+00 0 0 0
12 1 2.4982807504276405e+01 -1.4394651616108348e+02 0.0000000000000000e+00 0 0 0
13 1 -2.1632142984869529e+00 -4.9577549095313763e+01 0.0000000000000000e+00 0 0 0
14 1 -1.7060368852489731e+02 -2.4420558848004870e+01 0.0000000000000000e+00 0 0 0
15 1 7.1663413685272106e+00 -7.7260497923887669e+01 0.0000000000000000e+00 0 0 0
16 1 1.2810413400382106e+02 -9.6394683675485680e+01 0.0000000000000000e+00 0 0 0
17 1 -1.2160740812638900e+02 1.4491112320853799e+02 0.0000000000000000e+00 0 0 0
18 1 5.5422878900233783e+01 8.0316028205991415e+01 0.0000000000000000e+00 0 0 0
19 1 -3.0308039502989939e+00 7.2828332827848172e+01 0.0000000000000000e+00 0 0 0
20 1 -1.7820708573516217e+02 1.2118048944660005e+01 0.0000000000000000e+00 0 0 0
21 1 -1.9012026191709796e+02 -6.3677555637889851e+00 0.0000000000000000e+00 0 0 0
22 1 3.0578244283570609e+01 6.7212319097966144e+01 0.0000000000000000e+00 0 0 0
23 1 4.7752140549384798e+01 6.5572140956743297e+01 0.0000000000000000e+00 0 0 0
24 1 -8.2452818803467835e+01 2.6451321972063042e+01 0.0000000000000000e+00 0 0 0
25 1 8.5526201250262631e+01 2.3043577183992841e+02 0.0000000000000000e+00 0 0 0
26 1 1.6646226605443790e+01 9.9816683844850793e+00 0.0000000000000000e+00 0 0 0
27 1 -1.2503892515733071e+02 8.8150598061787022e+01 0.0000000000000000e+00 0 0 0
28 1 1.0203824042815140e+02 -3.8314732367336632e+01 0.0000000000000000e+00 0 0 0
29 1 1.9295508747259154e+02 -1.5721229518940532e+01 0.0000000000000000e+00 0 0 0
30 1 1.2126182179635018e+02 4.9693063430284468e+01 0.0000000000000000e+00 0 0 0
31 1 8.3295262605994651e+01 -1.7150775141610978e+02 0.0000000000000000e+00 0 0 0
32 1 1.0314583345379795e+02 2.4542535029123581e+01 0.0000000000000000e+00 0 0 0

Velocities

1 -6.1313025230008136e-03 5.4230949253811951e-03 0.0000000000000000e+00
2 -5.2677812516583452e-03 1.6356559826949092e-02 0.0000000000000000e+00
3 -1.2682770251534489e-02 -2.4956601437894077e-02 0.0000000000000000e+00
4 4.3618968297716191e-03 -1.8685556844129331e-02 0.0000000000000000e+00
5 -1.9060077078647344e-02 -1.9601853949443714e-02 0.0000000000000000e+00
6 -2.4287091635574860e-02 -2.8926235313626838e-02 0.0000000000000000e+00
7 -2.7816504871016154e-02 -2.1329345755419934e-02 0.0000000000000000e+00
8 1.5372294561948916e-02 8.3356016397603881e-04 0.0000000000000000e+00
9 -1.3986947859480238e-02 5.2441599168997965e-03 0.0000000000000000e+00
10 -9.8972536365282194e-04 1.7359839066000800e-02 0.0000000000000000e+00
11 2.1830677011323591e-02 -1.4637161541149434e-02 0.0000000000000000e+00
12 7.0756955927057446e-03 -2.3414009322306341e-02 0.0000000000000000e+00
13 6.4092845705917252e-03 1.2086613277929039e-02 0.0000000000000000e+00
14 3.2191820383045099e-02 1.1524205458027513e-02 0.0000000000000000e+00
15 2.2639606849875170e-02 -4.6154599236740840e-02 0.0000000000000000e+00
16 -2.7300541990277191e-02 3.3230626895970769e-02 0.0000000000000000e+00
17 1.2852506418339411e-02 7.4190597585928877e-03 0.0000000000000000e+00
18 -1.2116205298064326e-02 3.9236434052045764e-02 0.0000000000000000e+00
19 -1.9269602559978935e-02 -4.9344459390607215e-03 0.0000000000000000e+00
20 -3.6125128365566063e-02 4.0624109989496497e-02 0.0000000000000000e+00
21 -2.4185694138898362e-02 1.1762248903304899e-02 0.0000000000000000e+00
22 4.1936826852588906e-02 3.4222838753914272e-03 0.0000000000000000e+00
23 2.3418861350677379e-02 3.1284794538479974e-02 0.0000000000000000e+00
24 2.5488587948650891e-02 5.0102725616706081e-03 0.0000000000000000e+00
25 7.2995943992255220e-03 -2.7157198132076340e-02 0.0000000000000000e+00
26 1.4191447971989880e-02 -2.0050894223386833e-02 0.0000000000000000e+00
27 6.4110099109845236e-04 -1.5255190696454453e-02 0.0000000000000000e+00
28 1.9511651135898481e-02 -6.7110497491455687e-03 0.0000000000000000e+00
29 2.7959560430136769e-03 -9.3409183649141719e-03 0.0000000000000000e+00
30 1.5498987569783783e-02 -1.8788116145567052e-03 0.0000000000000000e+00
31 1.6561615746524736e-02 8.6691194916289974e-03 0.0000000000000000e+00
32 6.4561928590552917e-03 -4.4592363963460217e-02 0.0000000000000000e+00
