LAMMPS data file via write_data, version 29 Mar 2019, timestep = 20000000

32 atoms
1 atom types

-1.5000000000000000e+03 1.5000000000000000e+03 xlo xhi
-1.5000000000000000e+03 1.5000000000000000e+03 ylo yhi
-1.5000000000000000e+03 1.5000000000000000e+03 zlo zhi

Masses

1 0.00054858

Pair Coeffs # gauss/cut

1 0.0355436 0 33.6721

Atoms # atomic

1 1 3.3398665370902557e+02 3.6136067657574358e+01 0.0000000000000000e+00 0 0 0
2 1 -1.6882152852982117e+02 1.2533464700132535e+02 0.0000000000000000e+00 0 0 0
3 1 1.8270925613461849e+01 -3.8198477808042810e+01 0.0000000000000000e+00 0 0 0
4 1 -6.8416124112692160e+01 1.3091438928332687e+02 0.0000000000000000e+00 0 0 0
5 1 5.6676131400658925e+01 1.8582015620471250e+02 0.0000000000000000e+00 0 0 0
6 1 -2.0815514876789970e+02 2.6567130753567124e+01 0.0000000000000000e+00 0 0 0
7 1 1.3526415707958961e+02 2.0630213136639568e+02 0.0000000000000000e+00 0 0 0
8 1 5.9008856152078311e+00 -1.9495695352978800e+02 0.0000000000000000e+00 0 0 0
9 1 -1.5945300559228113e+02 -8.2317602370962305e+01 0.0000000000000000e+00 0 0 0
10 1 2.1954146093566675e+02 -1.4989885966479667e+02 0.0000000000000000e+00 0 0 0
11 1 1.2575160921778415e+02 7.2911972287612997e+01 0.0000000000000000e+00 0 0 0
12 1 1.4002146845933581e+02 -1.8731615050701893e+02 0.0000000000000000e+00 0 0 0
13 1 -2.1556496024784357e+02 -6.2094217797499518e+01 0.0000000000000000e+00 0 0 0
14 1 1.7194522185420777e+02 1.1259014074005576e+01 0.0000000000000000e+00 0 0 0
15 1 5.4093319534215006e+01 5.4089106209490964e+01 0.0000000000000000e+00 0 0 0
16 1 -2.3288185700960781e+02 -9.5916985153392673e+01 0.0000000000000000e+00 0 0 0
17 1 -1.5627153547376872e+02 -1.6383330370052337e+02 0.0000000000000000e+00 0 0 0
18 1 1.2381486742062086e+02 -1.0294924028450609e+02 0.0000000000000000e+00 0 0 0
19 1 9.7902740371471012e+01 2.2111734144420359e+02 0.0000000000000000e+00 0 0 0
20 1 -1.2232908809086734e+02 -1.0330589737619129e+00 0.0000000000000000e+00 0 0 0
21 1 1.5436562322952261e+02 -7.8723663525428918e+01 0.0000000000000000e+00 0 0 0
22 1 -6.7652604188142888e+01 5.8587612273198111e+01 0.0000000000000000e+00 0 0 0
23 1 2.7221203094274387e+01 1.0982714199776498e+02 0.0000000000000000e+00 0 0 0
24 1 1.6102390972500157e+01 -5.1154069753732131e+01 0.0000000000000000e+00 0 0 0
25 1 5.0960956670624135e+01 -7.2526614072705740e+01 0.0000000000000000e+00 0 0 0
26 1 1.6080366316289695e+01 2.0942686202913114e+02 0.0000000000000000e+00 0 0 0
27 1 -2.2092451445199618e+01 2.7326394727191563e+01 0.0000000000000000e+00 0 0 0
28 1 1.0227214733938317e+02 2.4147583074604047e+01 0.0000000000000000e+00 0 0 0
29 1 -1.5571872196208454e+02 -8.9349701595850334e+01 0.0000000000000000e+00 0 0 0
30 1 3.2723500335614112e+01 -2.5026360447645573e+02 0.0000000000000000e+00 0 0 0
31 1 -9.0054477573539501e+01 -1.4876598302098091e+02 0.0000000000000000e+00 0 0 0
32 1 -5.9733857421139561e+01 2.8503878144303080e+01 0.0000000000000000e+00 0 0 0

Velocities

1 -2.9530902257635947e-03 2.1289168387417037e-02 0.0000000000000000e+00
2 -3.5250207768884281e-02 -1.0595437105435276e-02 0.0000000000000000e+00
3 -1.2090210712742099e-03 -9.0549744601666551e-03 0.0000000000000000e+00
4 1.3979198083203385e-03 -3.3616796294853994e-03 0.0000000000000000e+00
5 1.5089012668010080e-02 -6.8673733408290616e-03 0.0000000000000000e+00
6 2.7211187689413509e-03 2.9068511494086012e-03 0.0000000000000000e+00
7 1.5962001510532479e-03 1.1210772132809186e-02 0.0000000000000000e+00
8 3.5339829293535028e-03 -1.9602692627525429e-02 0.0000000000000000e+00
9 1.0765744525056598e-02 2.2731447878711927e-03 0.0000000000000000e+00
10 -9.4379901658001968e-03 -1.2157510610789768e-02 0.0000000000000000e+00
11 -6.0352464031189785e-03 -6.5905333687815912e-03 0.0000000000000000e+00
12 6.2911714852061582e-03 -4.7722230673860203e-03 0.0000000000000000e+00
13 -1.1071235995845684e-02 3.0305106044237366e-02 0.0000000000000000e+00
14 -5.8033852370705553e-03 1.2558833829930930e-02 0.0000000000000000e+00
15 7.7914780486066267e-03 4.0423473410212780e-03 0.0000000000000000e+00
16 7.1392897798048562e-03 -7.7076872087192862e-03 0.0000000000000000e+00
17 -1.7005213740835336e-02 5.0428237075173556e-03 0.0000000000000000e+00
18 6.6671684805707414e-03 -6.4788925276304202e-03 0.0000000000000000e+00
19 1.0783132120420608e-02 -1.2397495596122972e-02 0.0000000000000000e+00
20 1.4535180302872500e-02 -1.7074198525495032e-02 0.0000000000000000e+00
21 -9.5937793999443816e-03 -1.6713599575114022e-02 0.0000000000000000e+00
22 -9.6988278417400927e-03 2.0152066760816666e-02 0.0000000000000000e+00
23 -2.1229746162906193e-02 1.7638358079756944e-02 0.0000000000000000e+00
24 3.1726313923902197e-02 3.5381445896791959e-04 0.0000000000000000e+00
25 1.7009479013738973e-02 -6.5532467552574265e-03 0.0000000000000000e+00
26 4.1884928909135134e-03 -8.5236687422989149e-03 0.0000000000000000e+00
27 -3.3433485808965074e-02 1.2265356013728898e-02 0.0000000000000000e+00
28 -3.0398715936002178e-02 1.8946514250738872e-02 0.0000000000000000e+00
29 -5.7940147811774360e-05 2.8490226343507027e-03 0.0000000000000000e+00
30 -1.4575528427829715e-02 -9.2291375033155376e-04 0.0000000000000000e+00
31 -2.8295481916692337e-02 -9.4747329355608055e-03 0.0000000000000000e+00
32 -2.1084966577509597e-03 7.4346668391921404e-04 0.0000000000000000e+00
