LAMMPS data file via write_data, version 29 Mar 2019, timestep = 20000000

32 atoms
1 atom types

-1.5000000000000000e+03 1.5000000000000000e+03 xlo xhi
-1.5000000000000000e+03 1.5000000000000000e+03 ylo yhi
-1.5000000000000000e+03 1.5000000000000000e+03 zlo zhi

Masses

1 0.00054858

Pair Coeffs # gauss/cut

1 0.0118479 0 33.6721

Atoms # atomic

1 1 1.2505334272298137e+01 1.5606095244809634e+02 0.0000000000000000e+00 0 0 0
2 1 2.3834458454623174e+01 -8.1776972051936099e+00 0.0000000000000000e+00 0 0 0
3 1 1.3474108705363133e+02 -6.4710536342486535e+01 0.0000000000000000e+00 0 0 0
4 1 -3.6105883208843906e+01 -9.0406150829628569e+00 0.0000000000000000e+00 0 0 0
5 1 -9.5807729237113776e+01 -9.1296482922239520e+01 0.0000000000000000e+00 0 0 0
6 1 -9.5600918361569384e+01 -5.2168453545049310e+01 0.0000000000000000e+00 0 0 0
7 1 1.2484712491104210e+02 -1.0772124910195667e+02 0.0000000000000000e+00 0 0 0
8 1 2.5420045969345555e+01 -9.6736081369034906e+01 0.0000000000000000e+00 0 0 0
9 1 4.7885290568482610e+01 -4.9902999907396390e+00 0.0000000000000000e+00 0 0 0
10 1 -7.7801115715779815e+01 1.7471749035104196e+02 0.0000000000000000e+00 0 0 0
11 1 -1.0293599311505980e+02 1.4498559795773394e+02 0.0000000000000000e+00 0 0 0
12 1 -1.1220902117697325e+02 -3.4561016981325210e+01 0.0000000000000000e+00 0 0 0
13 1 9.5515743755160347e+00 -2.1801132664212961e+01 0.0000000000000000e+00 0 0 0
14 1 3.6995783479772179e+01 -5.5221119838709079e+01 0.0000000000000000e+00 0 0 0
15 1 8.0400007428200666e+01 3.1505993366725409e+01 0.0000000000000000e+00 0 0 0
16 1 1.8456814777643666e+02 -1.1892118041005167e+01 0.0000000000000000e+00 0 0 0
17 1 2.2821764268345955e+01 1.3106355195051685e+02 0.0000000000000000e+00 0 0 0
18 1 8.0697634932791061e+01 -4.6227606850481990e+00 0.0000000000000000e+00 0 0 0
19 1 -6.6662183750199347e+01 -7.9992493506726731e+01 0.0000000000000000e+00 0 0 0
20 1 -1.9851963536884031e+02 5.3957295156230053e+01 0.0000000000000000e+00 0 0 0
21 1 5.3792497583375514e+01 -9.2248752855312375e+01 0.0000000000000000e+00 0 0 0
22 1 -4.5849247092320837e+01 1.9832077662252740e+02 0.0000000000000000e+00 0 0 0
23 1 -7.0890104885241655e+01 2.4532843422330995e+01 0.0000000000000000e+00 0 0 0
24 1 -3.6073880241680939e+01 4.0129691360996702e+00 0.0000000000000000e+00 0 0 0
25 1 1.3772993160102678e+02 1.5334500437887883e+02 0.0000000000000000e+00 0 0 0
26 1 7.8712338525051720e+01 -8.8199710978572554e+01 0.0000000000000000e+00 0 0 0
27 1 -1.6772870639317929e+01 1.3746800425881898e+02 0.0000000000000000e+00 0 0 0
28 1 1.1874130987433108e+02 5.6073985426890630e+01 0.0000000000000000e+00 0 0 0
29 1 6.8841536819036193e+01 9.8475718946227730e+01 0.0000000000000000e+00 0 0 0
30 1 1.9594386514351848e+02 9.4103241766879222e+01 0.0000000000000000e+00 0 0 0
31 1 -5.6386157717930629e+01 -6.7594557062876376e+01 0.0000000000000000e+00 0 0 0
32 1 2.4887499586611334e+01 -9.3489730104822257e+01 0.0000000000000000e+00 0 0 0

Velocities

1 -2.1310552746079885e-02 2.1779873933481783e-02 0.0000000000000000e+00
2 1.6664904141302568e-02 -1.0175869033925202e-02 0.0000000000000000e+00
3 -3.1639802858912775e-03 1.5310329641521509e-02 0.0000000000000000e+00
4 1.2969470260332520e-02 -1.2537722398213271e-02 0.0000000000000000e+00
5 -1.6912452854272969e-03 1.5805797336507561e-02 0.0000000000000000e+00
6 -1.1961955829010134e-03 -9.3812052264319323e-03 0.0000000000000000e+00
7 -2.8806973465223578e-02 3.4448223007683340e-02 0.0000000000000000e+00
8 6.0490073658548528e-03 1.3765826504999863e-02 0.0000000000000000e+00
9 -2.1697840195600317e-03 9.6173696050736897e-03 0.0000000000000000e+00
10 1.8017061305739841e-02 -1.0883387193123548e-03 0.0000000000000000e+00
11 -4.6542494340061046e-03 -1.0749831736422119e-02 0.0000000000000000e+00
12 -2.1679607368778931e-02 1.7907832728360912e-02 0.0000000000000000e+00
13 9.2118878349606113e-03 1.7151459212613677e-03 0.0000000000000000e+00
14 8.9701004485407583e-03 1.0389807052566828e-03 0.0000000000000000e+00
15 1.0454129356158793e-02 5.5584301830927862e-03 0.0000000000000000e+00
16 2.4379433836402377e-02 5.4234663181543666e-03 0.0000000000000000e+00
17 -3.9912446547733160e-03 -1.4279216190255736e-02 0.0000000000000000e+00
18 6.9800410463604365e-03 7.5907094667196683e-03 0.0000000000000000e+00
19 -1.2758652042794777e-02 -2.6678887545319246e-03 0.0000000000000000e+00
20 8.4972533561987074e-03 4.2976127421450773e-03 0.0000000000000000e+00
21 6.1437924185156218e-03 1.8387200981370009e-02 0.0000000000000000e+00
22 -4.6637564863008336e-03 -1.0864897590516141e-02 0.0000000000000000e+00
23 3.9242122316377808e-03 1.2126175705251594e-02 0.0000000000000000e+00
24 -2.2979212327465248e-02 1.8771098387658950e-02 0.0000000000000000e+00
25 -9.6751525620752024e-05 5.3292445984947116e-03 0.0000000000000000e+00
26 1.8473064520768707e-03 -6.8495005938896420e-03 0.0000000000000000e+00
27 -3.1848891096590816e-02 1.0738084021672822e-02 0.0000000000000000e+00
28 -5.2473088225045107e-03 3.4059620329586807e-03 0.0000000000000000e+00
29 5.4103297816184828e-03 -3.0922494454954860e-03 0.0000000000000000e+00
30 -2.9553010451159715e-02 -2.8782736777182932e-02 0.0000000000000000e+00
31 -1.7485693905924589e-02 1.2214877932002160e-02 0.0000000000000000e+00
32 2.1017209606159968e-02 -1.2888293655555005e-02 0.0000000000000000e+00
