LAMMPS data file via write_data, version 29 Mar 2019, timestep = 20000000

32 atoms
1 atom types

-1.5000000000000000e+03 1.5000000000000000e+03 xlo xhi
-1.5000000000000000e+03 1.5000000000000000e+03 ylo yhi
-1.5000000000000000e+03 1.5000000000000000e+03 zlo zhi

Masses

1 0.00054858

Pair Coeffs # gauss/cut

1 0.0118479 0 33.6721

Atoms # atomic

1 1 -1.1382051179492002e+02 -2.6386342055342244e+01 0.0000000000000000e+00 0 0 0
2 1 5.9237307930320220e+01 1.1931927723539872e+02 0.0000000000000000e+00 0 0 0
3 1 3.7566953210890418e+01 7.7242939118912432e+01 0.0000000000000000e+00 0 0 0
4 1 -1.5940499742876995e+01 -9.1011845392900696e+01 0.0000000000000000e+00 0 0 0
5 1 -1.6091052902926251e+02 -1.0148329283873471e+02 0.0000000000000000e+00 0 0 0
6 1 -5.1379936474987481e+01 -1.7288065531148469e+01 0.0000000000000000e+00 0 0 0
7 1 1.6567759686163114e+02 -7.4987396822778635e+01 0.0000000000000000e+00 0 0 0
8 1 -1.9560614169922030e+01 -9.0739475720368631e+01 0.0000000000000000e+00 0 0 0
9 1 1.2674856465454239e+01 -1.4715416219145592e+02 0.0000000000000000e+00 0 0 0
10 1 -9.0182097561806145e+01 1.1645804686319822e+02 0.0000000000000000e+00 0 0 0
11 1 1.0816954428554098e+02 7.5359036294606298e+01 0.0000000000000000e+00 0 0 0
12 1 2.0991422509264339e+01 -1.1916876562981427e+02 0.0000000000000000e+00 0 0 0
13 1 1.1671394488141958e+01 -1.0016990790999518e+01 0.0000000000000000e+00 0 0 0
14 1 -8.4236656982095624e+01 2.0122659595257080e+01 0.0000000000000000e+00 0 0 0
15 1 -5.9158689849526354e+01 -2.6134772686915760e+01 0.0000000000000000e+00 0 0 0
16 1 1.3297068000534557e+02 -5.4065641596885206e+00 0.0000000000000000e+00 0 0 0
17 1 -4.6058129287431214e+01 9.1638043396625619e+01 0.0000000000000000e+00 0 0 0
18 1 6.3171011385849177e+01 8.3204978850589640e+01 0.0000000000000000e+00 0 0 0
19 1 -3.9090868885621624e+01 1.2944725044696239e+02 0.0000000000000000e+00 0 0 0
20 1 -2.2142089701296692e+02 5.1981338206582414e+01 0.0000000000000000e+00 0 0 0
21 1 -1.5464782423822240e+02 -7.1186324537526517e+01 0.0000000000000000e+00 0 0 0
22 1 9.9449872309340790e+01 -2.0355309194656410e+01 0.0000000000000000e+00 0 0 0
23 1 2.2040941202802667e+01 7.0537170455077998e+01 0.0000000000000000e+00 0 0 0
24 1 -1.5462155514540581e+02 -2.8291121292039733e+01 0.0000000000000000e+00 0 0 0
25 1 6.0012156856736993e+01 2.3131593172102185e+02 0.0000000000000000e+00 0 0 0
26 1 5.1150248656577737e+01 8.0890109357298510e+00 0.0000000000000000e+00 0 0 0
27 1 -1.6629476050377963e+02 1.0864856990159213e+02 0.0000000000000000e+00 0 0 0
28 1 8.9328173812486966e+01 -5.0545645575179826e+01 0.0000000000000000e+00 0 0 0
29 1 1.6432868948066729e+02 1.2267282646971021e+00 0.0000000000000000e+00 0 0 0
30 1 1.4039224374428989e+02 7.0004467195766978e+01 0.0000000000000000e+00 0 0 0
31 1 1.4007957935665149e+02 -1.3470248960495044e+02 0.0000000000000000e+00 0 0 0
32 1 8.4814866383916907e+01 -1.7081411114275095e+01 0.0000000000000000e+00 0 0 0

Velocities

1 2.5205915618556878e-03 -1.4457732373323266e-02 0.0000000000000000e+00
2 1.4035013592802176e-02 1.2924354298856470e-02 0.0000000000000000e+00
3 7.8690072394332917e-03 4.4772122038102416e-03 0.0000000000000000e+00
4 3.0190469346292537e-02 -4.5124756668484560e-03 0.0000000000000000e+00
5 -9.8975344163453761e-03 2.6568414511908611e-02 0.0000000000000000e+00
6 4.6127689326165925e-05 -1.5984170860605624e-02 0.0000000000000000e+00
7 1.7259157628813505e-02 8.6336364240679926e-03 0.0000000000000000e+00
8 -3.4234038684781347e-03 5.4553180120231130e-02 0.0000000000000000e+00
9 -3.1910340308349709e-02 -1.3665574165640366e-02 0.0000000000000000e+00
10 9.6938618850463936e-03 -6.5763586665636782e-04 0.0000000000000000e+00
11 -2.5528399424219257e-02 -2.3766338791912315e-02 0.0000000000000000e+00
12 4.3551337441678850e-03 -1.3617837810650143e-02 0.0000000000000000e+00
13 2.7819765003896480e-02 -2.1693222550735018e-03 0.0000000000000000e+00
14 1.5135458397488545e-02 3.3684335095509943e-02 0.0000000000000000e+00
15 1.9863625973890815e-02 -1.1780250889008286e-02 0.0000000000000000e+00
16 -8.7119255557991469e-03 -2.2049335823048279e-02 0.0000000000000000e+00
17 1.2778922257569347e-03 8.7231451798876081e-03 0.0000000000000000e+00
18 -1.3305401911919947e-02 3.5181048162377629e-03 0.0000000000000000e+00
19 -1.3918796572909733e-03 2.1685222935062219e-02 0.0000000000000000e+00
20 6.7372995340353294e-03 -3.8266160184343673e-02 0.0000000000000000e+00
21 3.2253730123104583e-03 -2.5780154899803325e-02 0.0000000000000000e+00
22 7.7167512936002457e-03 -2.9466606810079832e-02 0.0000000000000000e+00
23 -1.3517200355437504e-02 -1.0842895882411807e-02 0.0000000000000000e+00
24 -4.6077571513539112e-02 -2.1768856364989789e-03 0.0000000000000000e+00
25 2.1473261536361903e-03 -9.8753406776835272e-03 0.0000000000000000e+00
26 1.7926563835641646e-02 8.2961141845529877e-03 0.0000000000000000e+00
27 1.6220199761075185e-03 -3.4033029102294880e-02 0.0000000000000000e+00
28 1.6353683172134502e-02 -8.4389275859570768e-03 0.0000000000000000e+00
29 -1.7236203187983260e-03 -4.7377166941544063e-02 0.0000000000000000e+00
30 -2.0242450454868839e-02 4.9331143035004693e-03 0.0000000000000000e+00
31 -1.2890953651351270e-02 -1.4400017663829052e-02 0.0000000000000000e+00
32 -8.1201291132240849e-03 7.9189887189491225e-03 0.0000000000000000e+00
