LAMMPS data file via write_data, version 29 Mar 2019, timestep = 20000000

32 atoms
1 atom types

-1.5000000000000000e+03 1.5000000000000000e+03 xlo xhi
-1.5000000000000000e+03 1.5000000000000000e+03 ylo yhi
-1.5000000000000000e+03 1.5000000000000000e+03 zlo zhi

Masses

1 0.00054858

Pair Coeffs # gauss/cut

1 0.0355436 0 33.6721

Atoms # atomic

1 1 2.1848346679211778e+02 6.1746647906731297e+01 0.0000000000000000e+00 0 0 0
2 1 -1.0534282834610636e+02 1.6969795291793747e+02 0.0000000000000000e+00 0 0 0
3 1 1.3527304345616264e+02 1.2468384051693228e+02 0.0000000000000000e+00 0 0 0
4 1 -5.5233046900571260e+01 1.7117651127162226e+01 0.0000000000000000e+00 0 0 0
5 1 7.3658592322617523e+01 1.4619801543266428e+02 0.0000000000000000e+00 0 0 0
6 1 -4.0031528035399248e+01 1.4849658883067324e+01 0.0000000000000000e+00 0 0 0
7 1 -1.4877177592905957e+02 1.5209033770571801e+02 0.0000000000000000e+00 0 0 0
8 1 -8.7231326358635116e+01 -4.0715459562855521e+01 0.0000000000000000e+00 0 0 0
9 1 -1.7705778154692052e+02 -1.7568339155480641e+02 0.0000000000000000e+00 0 0 0
10 1 -1.6902626384087679e+01 -1.5682857369719073e+02 0.0000000000000000e+00 0 0 0
11 1 1.5900169577036129e+02 -2.7606366554557475e+01 0.0000000000000000e+00 0 0 0
12 1 1.1147695905097441e+02 -1.3922478453806342e+01 0.0000000000000000e+00 0 0 0
13 1 -1.1884795702988022e+02 4.2374095236613762e+01 0.0000000000000000e+00 0 0 0
14 1 1.5886816493918292e+02 1.4754849559314314e+02 0.0000000000000000e+00 0 0 0
15 1 3.1199952525321174e+02 -3.9156655931236429e+01 0.0000000000000000e+00 0 0 0
16 1 -6.0563259145285741e+01 1.5471804138129547e+01 0.0000000000000000e+00 0 0 0
17 1 7.6650908354552541e+01 -5.2375535982393721e+01 0.0000000000000000e+00 0 0 0
18 1 6.6579920780419101e+01 -2.2831883767176973e+02 0.0000000000000000e+00 0 0 0
19 1 1.2423309948829616e+02 -1.2988074053991031e+02 0.0000000000000000e+00 0 0 0
20 1 -2.4379927419327753e+01 1.8310125794905878e+02 0.0000000000000000e+00 0 0 0
21 1 1.6783969559902079e+02 -4.0420742828869606e+01 0.0000000000000000e+00 0 0 0
22 1 1.0155244637388257e+02 -9.2324784881602753e+01 0.0000000000000000e+00 0 0 0
23 1 -1.1911537829343567e+02 9.0868761734322078e+01 0.0000000000000000e+00 0 0 0
24 1 2.8989428871685568e+01 9.9794547812246350e+01 0.0000000000000000e+00 0 0 0
25 1 1.2547776567228301e+02 7.5431357328018578e+01 0.0000000000000000e+00 0 0 0
26 1 -5.1521616701230613e+01 -6.4853632323530192e+01 0.0000000000000000e+00 0 0 0
27 1 -1.8826909807558192e+02 -2.9001170510168411e+01 0.0000000000000000e+00 0 0 0
28 1 5.6682659715332676e+01 8.5503836881038140e+01 0.0000000000000000e+00 0 0 0
29 1 4.4015509543853275e+00 -6.8212633079562082e+01 0.0000000000000000e+00 0 0 0
30 1 -2.3707381595058519e+02 -8.1072338600050884e+01 0.0000000000000000e+00 0 0 0
31 1 -6.1395342062403969e+01 -1.3789630640577303e+02 0.0000000000000000e+00 0 0 0
32 1 5.9431666029997608e+01 6.7560987118414912e+00 0.0000000000000000e+00 0 0 0

Velocities

1 1.5409576899118535e-03 -1.0540298339994580e-01 0.0000000000000000e+00
2 -1.4185309643586211e-01 7.9323793495135200e-02 0.0000000000000000e+00
3 5.2328664773547549e-02 -1.8240291221067094e-02 0.0000000000000000e+00
4 1.6530142061868475e-01 1.4556844450162684e-01 0.0000000000000000e+00
5 1.8832549410296653e-01 1.8502169420238920e-01 0.0000000000000000e+00
6 -1.5735098794230445e-01 -8.6580594998311305e-02 0.0000000000000000e+00
7 -1.5248268564939582e-01 2.4929365504808712e-01 0.0000000000000000e+00
8 -3.3680602696884371e-01 3.5935589669137208e-02 0.0000000000000000e+00
9 -1.4710387017874181e-02 2.9049853705183020e-02 0.0000000000000000e+00
10 -2.6168669315215132e-01 2.2482958883637158e-01 0.0000000000000000e+00
11 3.2168623522417217e-01 -7.0572649009776625e-02 0.0000000000000000e+00
12 3.8305444252530957e-01 -6.9672851703050639e-02 0.0000000000000000e+00
13 1.5263118223528399e-01 7.0742509646350121e-02 0.0000000000000000e+00
14 5.4955188421463831e-02 -7.0698002317835851e-02 0.0000000000000000e+00
15 2.1697049959703318e-01 -1.5797951755980483e-01 0.0000000000000000e+00
16 -1.3476166797327288e-01 1.9777473763365588e-01 0.0000000000000000e+00
17 8.0541843612625175e-02 -8.0066230009064581e-03 0.0000000000000000e+00
18 6.4961625121580616e-02 -9.0123353351965127e-03 0.0000000000000000e+00
19 -2.3499130289220618e-01 2.8800466982407204e-02 0.0000000000000000e+00
20 -6.9891173795366369e-03 2.5770883924124105e-01 0.0000000000000000e+00
21 7.3733047720405162e-02 6.8311320069935288e-02 0.0000000000000000e+00
22 2.4559634137410974e-01 1.9233124570827775e-02 0.0000000000000000e+00
23 -5.6008928786453305e-02 -2.1357210482828187e-01 0.0000000000000000e+00
24 8.4637070377810972e-02 -6.8463144313196125e-04 0.0000000000000000e+00
25 2.6749017320499807e-01 -1.3524403410942731e-01 0.0000000000000000e+00
26 -2.3453502922000838e-01 8.7062167848913963e-02 0.0000000000000000e+00
27 -4.3117879706640216e-02 -4.0241038885337976e-02 0.0000000000000000e+00
28 -9.1055450770016935e-02 -1.0339614145630410e-01 0.0000000000000000e+00
29 -7.7505359481394254e-02 -2.7401484199097897e-01 0.0000000000000000e+00
30 5.0294450857963739e-02 1.4797951101979440e-01 0.0000000000000000e+00
31 -1.5715833202119653e-01 2.1577819248305047e-01 0.0000000000000000e+00
32 6.9168881713473615e-02 -1.0424253573315803e-01 0.0000000000000000e+00
