LAMMPS data file via write_data, version 29 Mar 2019, timestep = 20000000

32 atoms
1 atom types

-1.5000000000000000e+03 1.5000000000000000e+03 xlo xhi
-1.5000000000000000e+03 1.5000000000000000e+03 ylo yhi
-1.5000000000000000e+03 1.5000000000000000e+03 zlo zhi

Masses

1 0.00054858

Pair Coeffs # gauss/cut

1 0.0118479 0 33.6721

Atoms # atomic

1 1 8.4147915115213348e+00 6.9361436065614001e+01 0.0000000000000000e+00 0 0 0
2 1 7.9302487994189832e+01 -5.7530963702654155e+01 0.0000000000000000e+00 0 0 0
3 1 7.5583169854054233e+01 -5.0696294672081301e+01 0.0000000000000000e+00 0 0 0
4 1 -1.7904409077921024e-01 3.3250273330782221e+01 0.0000000000000000e+00 0 0 0
5 1 2.2895181737445991e+01 -1.7136419426408841e+02 0.0000000000000000e+00 0 0 0
6 1 -1.1547746058131328e+02 1.7123699108818169e+01 0.0000000000000000e+00 0 0 0
7 1 -4.3590567034919665e+01 1.4483290726498574e+01 0.0000000000000000e+00 0 0 0
8 1 9.1366139929081058e+01 -1.1590040633709962e+02 0.0000000000000000e+00 0 0 0
9 1 -6.9992744869781134e+01 -1.2819217489568666e+02 0.0000000000000000e+00 0 0 0
10 1 -1.1680365372803317e+02 9.9281152344167964e+01 0.0000000000000000e+00 0 0 0
11 1 1.0897069676229810e+02 8.1610049581958933e+01 0.0000000000000000e+00 0 0 0
12 1 -4.1736437054740662e+01 -4.7659328542453189e+01 0.0000000000000000e+00 0 0 0
13 1 1.4207887046552378e+02 -1.6916146583082323e+01 0.0000000000000000e+00 0 0 0
14 1 -8.4277851713793723e+01 1.4506543056180762e+01 0.0000000000000000e+00 0 0 0
15 1 -1.4897288409869367e+02 -3.1791771360314065e+01 0.0000000000000000e+00 0 0 0
16 1 7.4435484118960460e+01 -1.7134408725680339e+02 0.0000000000000000e+00 0 0 0
17 1 2.2317972576287596e+02 -4.6290683786014863e+00 0.0000000000000000e+00 0 0 0
18 1 -3.0483407107310434e+01 1.4433199398867536e+01 0.0000000000000000e+00 0 0 0
19 1 8.8637378388032886e+01 2.3086789565165674e+02 0.0000000000000000e+00 0 0 0
20 1 -1.2898921260295572e+02 8.9610902836771822e-01 0.0000000000000000e+00 0 0 0
21 1 -1.2778857335528214e+01 1.6099185720145400e+02 0.0000000000000000e+00 0 0 0
22 1 -5.2776628540131235e+01 -1.1431363922176782e+02 0.0000000000000000e+00 0 0 0
23 1 -1.5514758146853410e+02 6.7577616446021423e+01 0.0000000000000000e+00 0 0 0
24 1 -5.5515898868086147e+01 -1.3634422276950460e+01 0.0000000000000000e+00 0 0 0
25 1 1.6840453431426283e+01 1.5711696194954143e+02 0.0000000000000000e+00 0 0 0
26 1 6.0619603826855579e+00 -3.1423419651226226e+01 0.0000000000000000e+00 0 0 0
27 1 7.0518269809631889e+01 -7.6810667525561724e+00 0.0000000000000000e+00 0 0 0
28 1 -1.5631152970365331e+01 -6.9972824222920934e+01 0.0000000000000000e+00 0 0 0
29 1 1.4195385714416926e+02 1.3724588860664937e+02 0.0000000000000000e+00 0 0 0
30 1 1.0429285971879241e+02 1.3675529355936650e+01 0.0000000000000000e+00 0 0 0
31 1 1.9292715377713444e+02 -1.6967585658747035e+02 0.0000000000000000e+00 0 0 0
32 1 -7.4699226423079580e+01 1.7091472509508520e+02 0.0000000000000000e+00 0 0 0

Velocities

1 5.7387476288790519e-02 -1.2125050932179863e-02 0.0000000000000000e+00
2 9.8267296682432323e-02 1.0309593027679557e-01 0.0000000000000000e+00
3 3.2703386226155123e-02 1.5847204083619523e-01 0.0000000000000000e+00
4 4.3768019774425605e-03 3.5930988044252044e-02 0.0000000000000000e+00
5 -7.2505777900191207e-02 2.1316063995154781e-02 0.0000000000000000e+00
6 1.3344982756345306e-01 -1.2888196191623499e-01 0.0000000000000000e+00
7 -5.3435772375412388e-02 1.1709399741953577e-02 0.0000000000000000e+00
8 3.5473388985124026e-02 3.6487666964410380e-02 0.0000000000000000e+00
9 -2.3751817836639270e-02 -2.7881843044643865e-02 0.0000000000000000e+00
10 -7.1892217771954633e-02 -4.7920523176556262e-02 0.0000000000000000e+00
11 8.7728907987774676e-02 -1.3812967093494910e-01 0.0000000000000000e+00
12 4.7057665620942032e-02 -9.3527314162876879e-02 0.0000000000000000e+00
13 -8.7313082810714676e-02 8.6602534100262557e-02 0.0000000000000000e+00
14 7.1048333448786527e-02 -5.6208422915213628e-02 0.0000000000000000e+00
15 1.4079914665849100e-01 7.6720899270434517e-02 0.0000000000000000e+00
16 4.9264471639063834e-02 -1.0003962562593230e-01 0.0000000000000000e+00
17 -4.1016733989796585e-02 -1.1677755622439855e-01 0.0000000000000000e+00
18 7.7567264829151022e-02 1.4923183068344007e-02 0.0000000000000000e+00
19 -1.5449505369552839e-02 -3.3861474009772817e-03 0.0000000000000000e+00
20 1.1720401450142184e-01 8.1345374270162946e-02 0.0000000000000000e+00
21 1.7711430207913607e-02 1.1847534137262465e-02 0.0000000000000000e+00
22 2.5261725134928796e-02 -2.3271833268326617e-01 0.0000000000000000e+00
23 1.2384453204642637e-01 -1.2141525197709063e-02 0.0000000000000000e+00
24 -1.3979878105134610e-01 1.9914404147504933e-01 0.0000000000000000e+00
25 1.2290728988168231e-01 -1.8900574862568475e-02 0.0000000000000000e+00
26 -1.6936181805947390e-02 -1.3144929423403487e-01 0.0000000000000000e+00
27 -1.3808173150336729e-02 -1.1610991502759664e-01 0.0000000000000000e+00
28 -1.9440878211062601e-01 -7.9361559752583272e-02 0.0000000000000000e+00
29 7.1901885213701638e-02 -5.3949509049874327e-02 0.0000000000000000e+00
30 -8.7620439004628663e-03 -1.4225592427398939e-01 0.0000000000000000e+00
31 -1.1917399694428043e-04 7.6638462677454472e-02 0.0000000000000000e+00
32 -2.1165621004136735e-02 1.0219967909257188e-01 0.0000000000000000e+00
