LAMMPS data file via write_data, version 29 Mar 2019, timestep = 20000000

32 atoms
1 atom types

-1.5000000000000000e+03 1.5000000000000000e+03 xlo xhi
-1.5000000000000000e+03 1.5000000000000000e+03 ylo yhi
-1.5000000000000000e+03 1.5000000000000000e+03 zlo zhi

Masses

1 0.00054858

Pair Coeffs # gauss/cut

1 0.0355436 0 33.6721

Atoms # atomic

1 1 2.0630059623550025e+02 9.9897404146485229e+01 0.0000000000000000e+00 0 0 0
2 1 -1.3382544600642620e+02 1.1373234278649285e+02 0.0000000000000000e+00 0 0 0
3 1 2.8071199366730362e+01 -3.5341792580048349e+01 0.0000000000000000e+00 0 0 0
4 1 -2.9240822172264497e+01 4.8815309213465483e+01 0.0000000000000000e+00 0 0 0
5 1 3.6047018761491927e+01 2.1520235332622627e+02 0.0000000000000000e+00 0 0 0
6 1 -1.2833161486035988e+02 -1.5817510453750893e+01 0.0000000000000000e+00 0 0 0
7 1 -5.8479338143501060e+01 1.7779843674056758e+02 0.0000000000000000e+00 0 0 0
8 1 -2.8804271833602332e+01 -7.1709822655289216e+01 0.0000000000000000e+00 0 0 0
9 1 -1.9884856006865593e+02 -9.8789155803271512e+01 0.0000000000000000e+00 0 0 0
10 1 1.3472376440548524e+02 -2.1256071383865992e+02 0.0000000000000000e+00 0 0 0
11 1 7.8339516968191802e+01 -1.3644920725547627e+02 0.0000000000000000e+00 0 0 0
12 1 9.5319792941118124e+01 -1.9599269408547030e+01 0.0000000000000000e+00 0 0 0
13 1 -1.7549946788346062e+02 -6.9807685694849209e+00 0.0000000000000000e+00 0 0 0
14 1 9.7122841782483377e+01 8.5012383238474044e+01 0.0000000000000000e+00 0 0 0
15 1 1.1408572760305104e+02 7.3318041603221559e+01 0.0000000000000000e+00 0 0 0
16 1 -1.0065975422079204e+02 8.1054073980593216e+01 0.0000000000000000e+00 0 0 0
17 1 -9.0282101913472289e+01 -2.4273704499116076e+02 0.0000000000000000e+00 0 0 0
18 1 1.4938614176916263e+02 -1.2008962108198426e+02 0.0000000000000000e+00 0 0 0
19 1 1.6870799962177190e+02 7.9500475596051530e+01 0.0000000000000000e+00 0 0 0
20 1 8.4493071578798506e+01 1.2738035239935664e+02 0.0000000000000000e+00 0 0 0
21 1 1.5894812489364963e+02 -3.5253091264381730e+01 0.0000000000000000e+00 0 0 0
22 1 -1.3498636052290908e+02 -1.1575074152029455e+01 0.0000000000000000e+00 0 0 0
23 1 -1.3342697807053511e+02 8.2556807391766242e+01 0.0000000000000000e+00 0 0 0
24 1 3.8211086844666369e+01 7.1642908401198483e+01 0.0000000000000000e+00 0 0 0
25 1 2.3281993288707548e+00 -4.4974965595594234e+01 0.0000000000000000e+00 0 0 0
26 1 -4.6193051026213389e+01 1.3299041411928042e+02 0.0000000000000000e+00 0 0 0
27 1 -2.2780321139553368e+02 2.0819032551287119e+01 0.0000000000000000e+00 0 0 0
28 1 1.2545343065059230e+02 1.6164982248399653e+02 0.0000000000000000e+00 0 0 0
29 1 -1.0859334459767703e+02 -7.5204226240044576e+01 0.0000000000000000e+00 0 0 0
30 1 -1.7387365777239502e+01 -9.2441309504931766e+01 0.0000000000000000e+00 0 0 0
31 1 -1.8525794275578389e+02 -1.2709188325018674e+02 0.0000000000000000e+00 0 0 0
32 1 1.0888518594479115e+02 -2.8755813527096397e+01 0.0000000000000000e+00 0 0 0

Velocities

1 1.9189702430232138e-02 2.5265870869332085e-02 0.0000000000000000e+00
2 4.9743685841248560e-02 -2.0854522004042886e-04 0.0000000000000000e+00
3 -1.3467401947912148e-02 -1.4181132277727406e-02 0.0000000000000000e+00
4 -9.4059854018604065e-03 -3.1706900645860632e-02 0.0000000000000000e+00
5 2.0879300535452606e-02 -1.2721823167291341e-02 0.0000000000000000e+00
6 1.0812683246499781e-02 -8.3676446091967031e-04 0.0000000000000000e+00
7 -3.0310397082167650e-02 -4.4450870912198494e-02 0.0000000000000000e+00
8 2.3651601661324588e-03 3.4875929892762218e-02 0.0000000000000000e+00
9 6.7956108433485478e-03 5.4739509561284923e-03 0.0000000000000000e+00
10 -3.1111977987276595e-03 2.7634623964461025e-02 0.0000000000000000e+00
11 1.5043062565233450e-02 -8.1844680929026598e-03 0.0000000000000000e+00
12 -6.8880698313063884e-03 -2.4481407940141045e-02 0.0000000000000000e+00
13 6.3222192781929351e-02 -1.3346431563409934e-02 0.0000000000000000e+00
14 -1.2026785094602019e-02 9.4437807315318253e-03 0.0000000000000000e+00
15 2.9189750522498299e-02 6.7393154506571532e-03 0.0000000000000000e+00
16 2.4949435746771425e-02 5.5687133756191385e-03 0.0000000000000000e+00
17 5.2055745153322883e-03 -8.9465784603497030e-03 0.0000000000000000e+00
18 2.1109353165436787e-02 -2.7156877525445221e-02 0.0000000000000000e+00
19 -7.5997842157276962e-03 -9.9933574269075974e-03 0.0000000000000000e+00
20 5.0431979764373046e-02 8.6795455838793237e-03 0.0000000000000000e+00
21 -3.1482955475777195e-02 -5.9931291239443008e-03 0.0000000000000000e+00
22 -2.4927296791487377e-02 -3.3961967560406772e-02 0.0000000000000000e+00
23 -8.0195993508154744e-03 -9.1510638631674707e-03 0.0000000000000000e+00
24 3.5115887487276939e-02 3.7866285830548906e-03 0.0000000000000000e+00
25 -2.0774547242953738e-02 1.8224300647936179e-02 0.0000000000000000e+00
26 2.8440883469256103e-02 3.3345455816979473e-02 0.0000000000000000e+00
27 -1.3855586295576674e-02 1.0247569657290677e-02 0.0000000000000000e+00
28 3.5827443504647040e-02 -6.5281215808549150e-03 0.0000000000000000e+00
29 -2.2060365255081909e-02 1.3270310113314100e-02 0.0000000000000000e+00
30 -1.8930579221725502e-02 3.1093548934442751e-02 0.0000000000000000e+00
31 -5.9628561390376651e-02 4.4091396594397050e-02 0.0000000000000000e+00
32 7.4418554075998322e-03 -1.4791748798429247e-02 0.0000000000000000e+00
