LAMMPS data file via write_data, version 29 Mar 2019, timestep = 20000000

32 atoms
1 atom types

-1.5000000000000000e+03 1.5000000000000000e+03 xlo xhi
-1.5000000000000000e+03 1.5000000000000000e+03 ylo yhi
-1.5000000000000000e+03 1.5000000000000000e+03 zlo zhi

Masses

1 0.00054858

Pair Coeffs # gauss/cut

1 0.0355436 0 33.6721

Atoms # atomic

1 1 3.8836731979167519e+02 6.1593615312520896e+01 0.0000000000000000e+00 0 0 0
2 1 -1.4093213523786844e+02 1.8274875533762537e+02 0.0000000000000000e+00 0 0 0
3 1 -2.0017635520871309e+01 -3.8961881980904280e+01 0.0000000000000000e+00 0 0 0
4 1 -3.9529699011918410e+01 1.6272366181331182e+02 0.0000000000000000e+00 0 0 0
5 1 1.1376490670159898e+00 6.1354328952902485e+01 0.0000000000000000e+00 0 0 0
6 1 -2.0302410586365784e+02 7.0566590456820791e+01 0.0000000000000000e+00 0 0 0
7 1 2.2646213304790811e+02 1.3988311061874646e+02 0.0000000000000000e+00 0 0 0
8 1 -9.7977432018462224e+01 -7.5267239024497002e+01 0.0000000000000000e+00 0 0 0
9 1 -1.0360892724012677e+02 -1.2840410847861773e+02 0.0000000000000000e+00 0 0 0
10 1 1.2019295417089000e+02 -6.5186376637119110e+01 0.0000000000000000e+00 0 0 0
11 1 1.8365512214874505e+02 3.3103199232074878e+01 0.0000000000000000e+00 0 0 0
12 1 -1.1599195950850456e+02 5.0598104407505950e+01 0.0000000000000000e+00 0 0 0
13 1 -1.5088521660160663e+02 -1.7760063730419600e+02 0.0000000000000000e+00 0 0 0
14 1 2.7083558122844113e+02 5.8548852807425874e+01 0.0000000000000000e+00 0 0 0
15 1 -7.1031592938678102e+01 6.6875065714635209e+00 0.0000000000000000e+00 0 0 0
16 1 3.6184101058956458e+01 -9.9346804928423964e+01 0.0000000000000000e+00 0 0 0
17 1 -2.7136859891027761e+01 -1.8190789078831844e+02 0.0000000000000000e+00 0 0 0
18 1 1.9851997461376777e+02 -1.6536261448860876e+02 0.0000000000000000e+00 0 0 0
19 1 2.7855557538508247e+01 1.0542696341266591e+02 0.0000000000000000e+00 0 0 0
20 1 1.6582693126840056e+02 -5.4669803592222046e+01 0.0000000000000000e+00 0 0 0
21 1 7.1275430843150062e+01 -1.5064497102589004e+02 0.0000000000000000e+00 0 0 0
22 1 2.3208705410636369e+02 1.4055441550547215e+02 0.0000000000000000e+00 0 0 0
23 1 -6.7676455792608248e-01 3.4640131806645506e+01 0.0000000000000000e+00 0 0 0
24 1 1.8881734172323846e+02 3.8582079974813801e+01 0.0000000000000000e+00 0 0 0
25 1 -4.3944106195709253e+01 -1.3075862077731131e+02 0.0000000000000000e+00 0 0 0
26 1 -9.2540834042757623e+01 -3.6659526345600781e+01 0.0000000000000000e+00 0 0 0
27 1 -3.1438931759951565e+00 1.0196782687771609e+02 0.0000000000000000e+00 0 0 0
28 1 3.8264579706890480e+01 -1.5747049999146236e+01 0.0000000000000000e+00 0 0 0
29 1 -2.0768549592923375e+02 -2.8596933208859191e+01 0.0000000000000000e+00 0 0 0
30 1 -8.7828437142967843e+01 -2.0223316310408384e+02 0.0000000000000000e+00 0 0 0
31 1 9.1604558361739564e+01 -2.0701578355163203e+01 0.0000000000000000e+00 0 0 0
32 1 -1.8897351633371940e+02 8.3652690233578710e+01 0.0000000000000000e+00 0 0 0

Velocities

1 2.2921813994743287e-02 6.4298011411972741e-03 0.0000000000000000e+00
2 -1.4665967208143282e-02 8.5304159581578909e-04 0.0000000000000000e+00
3 4.7399279555203318e-03 -1.1991424638383272e-03 0.0000000000000000e+00
4 7.5068175955227807e-04 1.2692994929813817e-02 0.0000000000000000e+00
5 -1.4564377935342809e-03 2.4776144814666599e-03 0.0000000000000000e+00
6 -1.1276058404460033e-02 2.1695758964963001e-02 0.0000000000000000e+00
7 -9.3639522124212490e-03 1.4901149936726039e-02 0.0000000000000000e+00
8 1.8819595829060357e-02 -3.5579320269243657e-03 0.0000000000000000e+00
9 -3.0246147847044687e-04 1.5212504543675086e-02 0.0000000000000000e+00
10 1.1112008831757206e-02 1.9190318995464018e-02 0.0000000000000000e+00
11 1.3420788647551276e-02 1.8248820573004029e-02 0.0000000000000000e+00
12 -2.1169203999618413e-02 -1.2018982552144912e-02 0.0000000000000000e+00
13 1.8279539473934632e-02 -7.1145251738394411e-03 0.0000000000000000e+00
14 2.2924786708721407e-02 1.8186391673206667e-02 0.0000000000000000e+00
15 -9.3435951339746800e-03 2.3413496127524434e-02 0.0000000000000000e+00
16 -2.1899964923358273e-02 -2.4685305375363054e-02 0.0000000000000000e+00
17 1.1241717558578387e-02 1.1614873263773386e-02 0.0000000000000000e+00
18 6.0581231424474951e-03 1.4393655477097669e-02 0.0000000000000000e+00
19 -7.2664327823914734e-03 -2.4797068454648172e-02 0.0000000000000000e+00
20 -1.3435701579934442e-02 -1.6078207515075854e-02 0.0000000000000000e+00
21 4.3747450750215022e-03 1.6331882496257583e-02 0.0000000000000000e+00
22 1.0951485658148304e-02 -9.5751794108088414e-03 0.0000000000000000e+00
23 9.5410870642098199e-03 1.9534070507742958e-04 0.0000000000000000e+00
24 5.4458277737475325e-03 1.9830378016152877e-02 0.0000000000000000e+00
25 -9.8779558342926496e-03 -1.2862773421902054e-02 0.0000000000000000e+00
26 -1.6747127473365684e-02 -1.4250552742143218e-02 0.0000000000000000e+00
27 3.0622677195763458e-02 -2.1073219290998983e-02 0.0000000000000000e+00
28 -5.8343777020861539e-03 -1.2511866913784820e-02 0.0000000000000000e+00
29 -1.6431117592729052e-02 6.3719157231605962e-03 0.0000000000000000e+00
30 -8.8952433269479467e-03 -3.4122104937148743e-03 0.0000000000000000e+00
31 2.1077376671362245e-04 -1.4731115173674566e-02 0.0000000000000000e+00
32 -5.9871296005373012e-03 1.5537050509572606e-02 0.0000000000000000e+00
