LAMMPS data file via write_data, version 29 Mar 2019, timestep = 20000000

32 atoms
1 atom types

-1.5000000000000000e+03 1.5000000000000000e+03 xlo xhi
-1.5000000000000000e+03 1.5000000000000000e+03 ylo yhi
-1.5000000000000000e+03 1.5000000000000000e+03 zlo zhi

Masses

1 0.00054858

Pair Coeffs # gauss/cut

1 0.0118479 0 33.6721

Atoms # atomic

1 1 5.0236517343321857e+01 1.0333121883179338e+01 0.0000000000000000e+00 0 0 0
2 1 8.2377848862044686e+01 -1.3579112248070615e+02 0.0000000000000000e+00 0 0 0
3 1 1.0240411403112144e+02 -4.1802912453216097e+00 0.0000000000000000e+00 0 0 0
4 1 -1.2322560570213834e+00 -1.2404744357451476e+02 0.0000000000000000e+00 0 0 0
5 1 -2.1927360030719775e+01 -8.3167150604388809e+00 0.0000000000000000e+00 0 0 0
6 1 -9.8686090586617468e+01 5.6765276559717634e+01 0.0000000000000000e+00 0 0 0
7 1 3.2930423269864541e+01 -1.0383904015168817e+02 0.0000000000000000e+00 0 0 0
8 1 5.3228693486302481e+00 -1.7058270798496068e+02 0.0000000000000000e+00 0 0 0
9 1 -6.6123803815037093e+01 -1.1880261783469784e+02 0.0000000000000000e+00 0 0 0
10 1 2.6855482414761793e+00 1.5163866414135308e+02 0.0000000000000000e+00 0 0 0
11 1 1.0737481345667351e+02 5.8207784783130677e+01 0.0000000000000000e+00 0 0 0
12 1 2.1392332562263174e+01 -1.8914073644815213e+02 0.0000000000000000e+00 0 0 0
13 1 1.4303088662346480e+02 -1.0718828523712398e+02 0.0000000000000000e+00 0 0 0
14 1 -1.5657050163678466e+02 -5.0296400626503335e+01 0.0000000000000000e+00 0 0 0
15 1 -1.5537234367358934e+02 1.3986110607931087e+02 0.0000000000000000e+00 0 0 0
16 1 1.1701518596338643e+02 -1.4562121781637131e+02 0.0000000000000000e+00 0 0 0
17 1 1.8672837304357506e+02 1.5219528427204909e+02 0.0000000000000000e+00 0 0 0
18 1 4.5985505987275751e+01 3.9406187538092517e+01 0.0000000000000000e+00 0 0 0
19 1 2.1620382298885271e+01 1.0223021244377036e+02 0.0000000000000000e+00 0 0 0
20 1 -1.3096489481280827e+02 -8.2202281238267375e+01 0.0000000000000000e+00 0 0 0
21 1 -8.0264985979165971e+01 6.0578067354556609e+01 0.0000000000000000e+00 0 0 0
22 1 2.7569294033457151e+01 -2.3230667970150174e+02 0.0000000000000000e+00 0 0 0
23 1 -1.2581836856111381e+02 1.5679325410946609e+01 0.0000000000000000e+00 0 0 0
24 1 -7.3701189885060785e+01 1.9411599863057354e+01 0.0000000000000000e+00 0 0 0
25 1 2.4770787817976689e+01 1.5383405239980564e+02 0.0000000000000000e+00 0 0 0
26 1 1.6557576041559261e+02 1.4729896291977347e+01 0.0000000000000000e+00 0 0 0
27 1 -2.2234756832529051e+01 7.2499768534027027e+01 0.0000000000000000e+00 0 0 0
28 1 -4.0188418008304623e+01 -3.7341137074412414e+00 0.0000000000000000e+00 0 0 0
29 1 1.1419460595555076e+02 -2.3366680823816260e+01 0.0000000000000000e+00 0 0 0
30 1 1.5305453859244838e+02 -2.1547824040030861e+01 0.0000000000000000e+00 0 0 0
31 1 1.8167396453125718e+02 -2.3771742753657603e+02 0.0000000000000000e+00 0 0 0
32 1 -8.6764976245656356e+01 1.0217736770267911e+02 0.0000000000000000e+00 0 0 0

Velocities

1 -7.1904455884946898e-03 -1.2993640158302519e-02 0.0000000000000000e+00
2 1.7861022643467712e-03 4.5679639537692940e-03 0.0000000000000000e+00
3 -2.0867553547120461e-02 3.6426079597273987e-02 0.0000000000000000e+00
4 3.7619630686645193e-02 -1.0613153367407166e-02 0.0000000000000000e+00
5 5.5844495473076960e-02 3.4979140452852746e-03 0.0000000000000000e+00
6 -6.6521944503758861e-03 -1.6239720617343942e-02 0.0000000000000000e+00
7 -4.3893325191292409e-02 3.2874972926510503e-02 0.0000000000000000e+00
8 1.8004931089452536e-01 -2.1318486948757577e-02 0.0000000000000000e+00
9 9.4772703838263434e-03 9.9707825300068623e-03 0.0000000000000000e+00
10 2.0784357016345352e-02 -3.6641277564488902e-03 0.0000000000000000e+00
11 3.6556074953496498e-02 -3.9389313795761050e-02 0.0000000000000000e+00
12 -7.2894965676100640e-02 -1.3307229460983769e-02 0.0000000000000000e+00
13 3.9338326399169329e-02 4.8388236635200324e-02 0.0000000000000000e+00
14 1.9229718741092293e-03 3.5222885352231018e-02 0.0000000000000000e+00
15 -2.4247259862143569e-02 -4.4867339955851522e-02 0.0000000000000000e+00
16 7.7807193548523335e-03 1.5301232538371486e-02 0.0000000000000000e+00
17 3.6909083961838750e-02 1.2222414881064495e-02 0.0000000000000000e+00
18 -3.0783012988304190e-02 7.5883290595408409e-02 0.0000000000000000e+00
19 1.3019612671017249e-02 -3.3326240661864355e-02 0.0000000000000000e+00
20 -2.8101477165146903e-02 4.1248700962169219e-02 0.0000000000000000e+00
21 -5.9119120771370659e-02 3.8467090325077696e-02 0.0000000000000000e+00
22 -8.1811801415967306e-03 -3.5948112200808000e-02 0.0000000000000000e+00
23 2.5459614011174882e-02 6.6750540580705953e-02 0.0000000000000000e+00
24 2.7073955015530810e-02 4.0517277870719626e-02 0.0000000000000000e+00
25 -4.1379028844542802e-02 -7.9503466756211463e-02 0.0000000000000000e+00
26 1.3371145967040669e-02 -1.6687058613118769e-02 0.0000000000000000e+00
27 7.6438917821225208e-02 1.4383811661378450e-02 0.0000000000000000e+00
28 -1.4155085278031665e-02 1.8269149541747361e-02 0.0000000000000000e+00
29 -1.4914614714649006e-02 -1.0373385952177776e-02 0.0000000000000000e+00
30 -7.0550693357487787e-02 3.5971477072709659e-02 0.0000000000000000e+00
31 1.4928923512241716e-02 3.6603558938426331e-02 0.0000000000000000e+00
32 4.1643617628073521e-03 -2.0606177466481097e-02 0.0000000000000000e+00
