LAMMPS data file via write_data, version 29 Mar 2019, timestep = 20000000

32 atoms
1 atom types

-1.5000000000000000e+03 1.5000000000000000e+03 xlo xhi
-1.5000000000000000e+03 1.5000000000000000e+03 ylo yhi
-1.5000000000000000e+03 1.5000000000000000e+03 zlo zhi

Masses

1 0.00054858

Pair Coeffs # gauss/cut

1 0.0118479 0 33.6721

Atoms # atomic

1 1 1.4761641391444897e+01 1.6840054132049647e+02 0.0000000000000000e+00 0 0 0
2 1 -1.8360220954531755e+01 -7.0121963838574235e+00 0.0000000000000000e+00 0 0 0
3 1 8.9867702144311409e+01 3.9291164588476761e+01 0.0000000000000000e+00 0 0 0
4 1 2.7598954871888512e+01 -1.2581570706487034e+02 0.0000000000000000e+00 0 0 0
5 1 -2.1975819857964812e+01 -9.3219913981438467e+01 0.0000000000000000e+00 0 0 0
6 1 -1.6452316684317674e+02 -5.3705563589984060e+01 0.0000000000000000e+00 0 0 0
7 1 3.8919315727192171e+01 -1.5356845547080337e+02 0.0000000000000000e+00 0 0 0
8 1 7.0506291343881401e+01 -3.6269136035190790e+01 0.0000000000000000e+00 0 0 0
9 1 8.7884194694457811e+00 1.1862826805424510e+02 0.0000000000000000e+00 0 0 0
10 1 -6.3451315896258450e+01 1.0282714061675577e+02 0.0000000000000000e+00 0 0 0
11 1 -2.4009762903227934e+01 5.9704830980550563e+00 0.0000000000000000e+00 0 0 0
12 1 3.2554844286066661e+01 -8.8951360333669186e+01 0.0000000000000000e+00 0 0 0
13 1 -4.1040662652894525e+01 -6.6063001334538313e+01 0.0000000000000000e+00 0 0 0
14 1 -7.9688891291232622e+01 -1.2975939465547446e+01 0.0000000000000000e+00 0 0 0
15 1 -5.2134495323171926e+01 -1.5213169992882442e+02 0.0000000000000000e+00 0 0 0
16 1 1.9520450549311056e+02 3.6440147181974289e+01 0.0000000000000000e+00 0 0 0
17 1 3.9595094281639923e+01 3.8371657852094181e+01 0.0000000000000000e+00 0 0 0
18 1 9.9582396898339269e+01 2.2362552277483378e+01 0.0000000000000000e+00 0 0 0
19 1 -1.1406863815190302e+02 9.2223540205706144e+01 0.0000000000000000e+00 0 0 0
20 1 -8.8177030993638766e+01 6.9604670217648874e+01 0.0000000000000000e+00 0 0 0
21 1 5.8728352855063719e+01 -6.4717388066615555e+01 0.0000000000000000e+00 0 0 0
22 1 -1.2019280461634418e+02 1.4851563079060733e+02 0.0000000000000000e+00 0 0 0
23 1 -8.4521938212413076e+01 7.0864273831021734e+01 0.0000000000000000e+00 0 0 0
24 1 9.2636264143378810e+01 1.7045054223493275e+02 0.0000000000000000e+00 0 0 0
25 1 -1.7823482451637972e+01 4.6364522536290814e+01 0.0000000000000000e+00 0 0 0
26 1 -4.1342462708265103e+01 -8.9513120180885053e-01 0.0000000000000000e+00 0 0 0
27 1 3.1637290068585461e+01 5.9992533648393795e+01 0.0000000000000000e+00 0 0 0
28 1 9.0229300041940505e+01 6.3507943097394346e+01 0.0000000000000000e+00 0 0 0
29 1 9.6631333225942882e+01 2.9286741268019025e+01 0.0000000000000000e+00 0 0 0
30 1 2.3506494210532776e+02 1.2774610589302787e+01 0.0000000000000000e+00 0 0 0
31 1 -2.1135042119943755e+01 8.4414640134344516e+00 0.0000000000000000e+00 0 0 0
32 1 -1.4161906552522774e+01 -1.5722763854316116e+02 0.0000000000000000e+00 0 0 0

Velocities

1 -2.7238997337992534e-02 1.8321252645406474e-02 0.0000000000000000e+00
2 -1.1653643242964286e-02 -2.5396749252177119e-03 0.0000000000000000e+00
3 -9.4008856607632422e-03 1.6670914053113282e-03 0.0000000000000000e+00
4 -1.0115131538690092e-02 8.1379283357349164e-03 0.0000000000000000e+00
5 -1.8586796326362304e-02 -1.5353319136087629e-03 0.0000000000000000e+00
6 -2.4607942696014795e-02 6.3918896781260210e-03 0.0000000000000000e+00
7 -7.1097179271474411e-03 5.7801248715711948e-03 0.0000000000000000e+00
8 8.6518159241157373e-03 1.5776659930795148e-04 0.0000000000000000e+00
9 -9.2898453705389170e-03 -1.3399752160708246e-02 0.0000000000000000e+00
10 -2.3808740772401648e-02 5.3422298347149521e-03 0.0000000000000000e+00
11 1.9896695048103475e-02 2.7304570921619503e-03 0.0000000000000000e+00
12 -7.2315919599153762e-03 -1.9005435743600092e-02 0.0000000000000000e+00
13 4.0708481616019421e-03 -1.9871232103232467e-02 0.0000000000000000e+00
14 -1.0230750986708208e-02 -2.7023176544882649e-02 0.0000000000000000e+00
15 -7.0389356726829394e-03 1.0828968707499895e-02 0.0000000000000000e+00
16 7.1030011274162133e-03 1.9713959819283706e-03 0.0000000000000000e+00
17 1.6505832848019625e-02 8.0895116861728796e-03 0.0000000000000000e+00
18 -7.8432318801876892e-03 1.9991739880909198e-02 0.0000000000000000e+00
19 -3.1200879838346788e-03 8.2326651250893140e-03 0.0000000000000000e+00
20 -2.8719354187022295e-03 -2.5152505770244405e-03 0.0000000000000000e+00
21 6.3078997108061098e-03 -2.5720201985512555e-02 0.0000000000000000e+00
22 2.0540707092800047e-02 1.2574669225504561e-02 0.0000000000000000e+00
23 -2.4925745632451448e-02 1.4759121275518861e-02 0.0000000000000000e+00
24 -7.9755006112391892e-04 -5.8282895772411338e-03 0.0000000000000000e+00
25 -4.3813081311290603e-03 4.9787490700026853e-03 0.0000000000000000e+00
26 -2.5199484750487457e-03 1.2769350052786180e-02 0.0000000000000000e+00
27 1.0542925196517217e-02 1.7829202508220173e-02 0.0000000000000000e+00
28 -4.6496547346834022e-03 -1.5310834856062694e-02 0.0000000000000000e+00
29 -8.3201005552764051e-03 1.3076177596793710e-02 0.0000000000000000e+00
30 2.1965755831149744e-03 -4.5998354108018604e-03 0.0000000000000000e+00
31 1.0659839881593084e-02 3.0893991584910428e-03 0.0000000000000000e+00
32 -7.2491323930102460e-03 4.3767844528191007e-03 0.0000000000000000e+00
