LAMMPS data file via write_data, version 29 Mar 2019, timestep = 20000000

32 atoms
1 atom types

-1.5000000000000000e+03 1.5000000000000000e+03 xlo xhi
-1.5000000000000000e+03 1.5000000000000000e+03 ylo yhi
-1.5000000000000000e+03 1.5000000000000000e+03 zlo zhi

Masses

1 0.00054858

Pair Coeffs # gauss/cut

1 0.0355436 0 33.6721

Atoms # atomic

1 1 1.0497230239522955e+02 -6.8134879239686885e+00 0.0000000000000000e+00 0 0 0
2 1 -6.6944020041366286e+01 1.9621132512346875e+02 0.0000000000000000e+00 0 0 0
3 1 -2.2126054698266572e+01 1.0981248266082405e+02 0.0000000000000000e+00 0 0 0
4 1 -1.4599994467677769e+02 1.1042200238558356e+01 0.0000000000000000e+00 0 0 0
5 1 8.5918269224668904e+01 1.0210079578563568e+02 0.0000000000000000e+00 0 0 0
6 1 -8.7077099083350248e+01 1.2903731680113196e+02 0.0000000000000000e+00 0 0 0
7 1 -1.4137344436718399e+02 1.1690551076920305e+02 0.0000000000000000e+00 0 0 0
8 1 -9.7189828840292208e+01 -4.8300408383345086e+01 0.0000000000000000e+00 0 0 0
9 1 -2.3999385439116244e+02 -1.8205969841930661e+02 0.0000000000000000e+00 0 0 0
10 1 1.6457789502284470e+02 -1.7609405747434366e+02 0.0000000000000000e+00 0 0 0
11 1 4.2374536435259031e+01 -5.8492643526741304e+01 0.0000000000000000e+00 0 0 0
12 1 9.3759903653334746e+01 -2.6874969959939385e+01 0.0000000000000000e+00 0 0 0
13 1 -1.0391088576731086e+02 3.2938949364067390e+01 0.0000000000000000e+00 0 0 0
14 1 1.6959370401669676e+02 1.5665320081868032e+02 0.0000000000000000e+00 0 0 0
15 1 2.7651010794838623e+02 -2.0277722183711276e+01 0.0000000000000000e+00 0 0 0
16 1 -2.4842612296763903e+01 7.5010795212081518e+01 0.0000000000000000e+00 0 0 0
17 1 8.4810740720659297e+01 -1.8382585721919386e+02 0.0000000000000000e+00 0 0 0
18 1 -1.7869792227397092e+01 -1.5127944360310576e+02 0.0000000000000000e+00 0 0 0
19 1 1.9692040086609424e+02 8.7248592221939674e+01 0.0000000000000000e+00 0 0 0
20 1 8.3361261338157917e+01 1.2340241622058532e+02 0.0000000000000000e+00 0 0 0
21 1 2.9997546100220191e+01 -6.1978215491894368e+01 0.0000000000000000e+00 0 0 0
22 1 9.2739430729409484e+00 -2.1490647156782273e+01 0.0000000000000000e+00 0 0 0
23 1 -2.8127562037263897e+02 -3.6824845578696404e+00 0.0000000000000000e+00 0 0 0
24 1 3.8580148562089619e+01 1.9990447124076584e+02 0.0000000000000000e+00 0 0 0
25 1 3.1839623725343625e+01 7.3405256489345447e+01 0.0000000000000000e+00 0 0 0
26 1 1.8228449286549196e+01 8.7472852725918969e+01 0.0000000000000000e+00 0 0 0
27 1 -3.0287652094501470e+02 -1.5303649614736602e+02 0.0000000000000000e+00 0 0 0
28 1 5.3311929850026502e+01 2.4542636538801071e+02 0.0000000000000000e+00 0 0 0
29 1 -1.0427697825084873e+02 -1.0721628423960162e+02 0.0000000000000000e+00 0 0 0
30 1 7.9853464096293536e+01 -1.1196826305472574e+02 0.0000000000000000e+00 0 0 0
31 1 2.8652119494566744e+01 -1.5598157462409841e+02 0.0000000000000000e+00 0 0 0
32 1 1.7023362255552064e+02 -9.0229393392210028e+01 0.0000000000000000e+00 0 0 0

Velocities

1 3.0643665295143872e-02 2.7281984715456575e-02 0.0000000000000000e+00
2 -5.7495027599025687e-02 3.4140281074423913e-02 0.0000000000000000e+00
3 5.9866012348384616e-02 5.4166622769170746e-02 0.0000000000000000e+00
4 -2.1250255369185980e-02 4.2187717971371275e-02 0.0000000000000000e+00
5 9.8239978916971685e-03 3.5849212875409930e-02 0.0000000000000000e+00
6 -3.6364566948509061e-03 3.2109396079722817e-02 0.0000000000000000e+00
7 8.1010959323369758e-03 -9.9502000248928458e-03 0.0000000000000000e+00
8 1.5629205553888036e-02 -3.3392596459540617e-02 0.0000000000000000e+00
9 -6.1053351686992724e-03 9.8646662273302930e-06 0.0000000000000000e+00
10 3.4816156732095996e-02 -1.6071540150386525e-02 0.0000000000000000e+00
11 -5.3971468796215713e-02 3.4070463143688424e-02 0.0000000000000000e+00
12 4.8745462126067847e-02 4.6604246512428955e-02 0.0000000000000000e+00
13 1.2266813715573234e-02 3.3382730272659887e-02 0.0000000000000000e+00
14 7.6677804599858783e-03 -6.0364691148758146e-03 0.0000000000000000e+00
15 -4.0632729284256618e-02 -6.3882277520190683e-02 0.0000000000000000e+00
16 -2.3836349210046140e-02 -5.8281321104394601e-02 0.0000000000000000e+00
17 2.1489278078405836e-03 -3.8418325958835459e-02 0.0000000000000000e+00
18 2.0642457008989690e-02 8.4829270114759603e-02 0.0000000000000000e+00
19 -4.2674447121381354e-02 -3.9628289253773111e-02 0.0000000000000000e+00
20 -3.0277574586827928e-02 -1.8117576484652301e-02 0.0000000000000000e+00
21 -2.5455765704602319e-02 4.4946152094155971e-02 0.0000000000000000e+00
22 2.4685496108082287e-02 8.0986261127714926e-02 0.0000000000000000e+00
23 -8.5438665318323365e-02 -6.0481830020869272e-02 0.0000000000000000e+00
24 2.2260770873727898e-02 6.8323279367566089e-02 0.0000000000000000e+00
25 -6.2384283089962321e-02 4.4529934750009992e-02 0.0000000000000000e+00
26 3.6123099551906117e-02 -3.9743040734801872e-02 0.0000000000000000e+00
27 4.1366972113938853e-02 -3.8322343954034679e-02 0.0000000000000000e+00
28 -2.5480163873502670e-02 4.4652512357427246e-02 0.0000000000000000e+00
29 -8.0869920374861293e-02 -4.0928080482996627e-02 0.0000000000000000e+00
30 -3.1806475446326844e-02 -4.0564053988068616e-02 0.0000000000000000e+00
31 -2.7932635113627872e-02 -6.8600612280097548e-02 0.0000000000000000e+00
32 -3.4281812567204431e-02 -3.3433728753988902e-02 0.0000000000000000e+00
