LAMMPS data file via write_data, version 29 Mar 2019, timestep = 20000000

32 atoms
1 atom types

-1.5000000000000000e+03 1.5000000000000000e+03 xlo xhi
-1.5000000000000000e+03 1.5000000000000000e+03 ylo yhi
-1.5000000000000000e+03 1.5000000000000000e+03 zlo zhi

Masses

1 0.00054858

Pair Coeffs # gauss/cut

1 0.0118479 0 33.6721

Atoms # atomic

1 1 4.6481778233189353e+01 1.5812511157391165e+02 0.0000000000000000e+00 0 0 0
2 1 2.9091428726741750e+01 -2.3984321772740380e+01 0.0000000000000000e+00 0 0 0
3 1 8.7965875833248290e+01 2.8073853227037006e+01 0.0000000000000000e+00 0 0 0
4 1 2.6428880587775431e+01 -1.2078023597044323e+02 0.0000000000000000e+00 0 0 0
5 1 -5.2357781924078971e+01 -6.9603750153218925e+01 0.0000000000000000e+00 0 0 0
6 1 -1.8814115027023399e+02 -7.8437021803430270e+01 0.0000000000000000e+00 0 0 0
7 1 9.5574364099423747e+01 -1.6972326927594338e+02 0.0000000000000000e+00 0 0 0
8 1 7.4896784582751792e+01 -7.3538431126558223e+01 0.0000000000000000e+00 0 0 0
9 1 -5.7584239999793407e+00 6.3923332311987984e+01 0.0000000000000000e+00 0 0 0
10 1 -3.6932370065891767e+01 1.0844554045409444e+02 0.0000000000000000e+00 0 0 0
11 1 1.1014539554672652e+01 3.2961922984242165e+01 0.0000000000000000e+00 0 0 0
12 1 8.3584952338971476e+01 -3.7390675569777009e+01 0.0000000000000000e+00 0 0 0
13 1 -3.6666104471854176e+01 2.6581008737601302e+01 0.0000000000000000e+00 0 0 0
14 1 -7.0475511004899246e+01 -1.9431472548575044e+01 0.0000000000000000e+00 0 0 0
15 1 -6.6119663904121609e+01 -1.3304217722423817e+02 0.0000000000000000e+00 0 0 0
16 1 1.8823610106175272e+02 6.5211500845363005e+01 0.0000000000000000e+00 0 0 0
17 1 3.2913921282834472e+01 -1.2112075207406265e+01 0.0000000000000000e+00 0 0 0
18 1 9.0374323424825832e+01 2.6665799332936707e+01 0.0000000000000000e+00 0 0 0
19 1 -6.6148771351555766e+01 2.6103957266522436e+01 0.0000000000000000e+00 0 0 0
20 1 -1.7821203619678894e+02 2.3298497230088584e+00 0.0000000000000000e+00 0 0 0
21 1 9.4587835022181025e+01 -9.7282876961764885e+01 0.0000000000000000e+00 0 0 0
22 1 -9.9317647757961169e+01 1.3253566214963439e+02 0.0000000000000000e+00 0 0 0
23 1 -9.6770688740005326e+01 8.9024022850240357e+01 0.0000000000000000e+00 0 0 0
24 1 2.9959648042605640e+01 1.0883708101699980e+02 0.0000000000000000e+00 0 0 0
25 1 1.4297185064239224e+01 6.7775829716061310e+01 0.0000000000000000e+00 0 0 0
26 1 -2.3326054045498634e+00 -4.4330345834587135e+01 0.0000000000000000e+00 0 0 0
27 1 -1.8156199755601897e+01 2.2606672266409284e+01 0.0000000000000000e+00 0 0 0
28 1 1.1403217070785492e+02 9.4911374751419615e+01 0.0000000000000000e+00 0 0 0
29 1 8.7081401311388049e+01 1.0287304084471138e+02 0.0000000000000000e+00 0 0 0
30 1 2.1157804179916693e+02 -3.5970348003130347e+01 0.0000000000000000e+00 0 0 0
31 1 2.2387227963756839e+01 3.9883887313945344e+01 0.0000000000000000e+00 0 0 0
32 1 -2.4047799128890780e+01 -1.1213057378996793e+02 0.0000000000000000e+00 0 0 0

Velocities

1 -1.9203215019600929e-03 2.1750744305413339e-03 0.0000000000000000e+00
2 8.8450786523708597e-03 1.1656155838450678e-02 0.0000000000000000e+00
3 4.6733273709889337e-03 1.8249223849040899e-02 0.0000000000000000e+00
4 2.6686081226856079e-02 1.3329877789533330e-02 0.0000000000000000e+00
5 -2.1750469754608991e-02 -1.6480295570632504e-03 0.0000000000000000e+00
6 -3.6537957117172795e-02 6.2101239810289283e-02 0.0000000000000000e+00
7 2.5429555832603829e-02 -5.3842001178434221e-03 0.0000000000000000e+00
8 1.5524849869104315e-02 6.0697280493185101e-03 0.0000000000000000e+00
9 1.3524450678889378e-03 1.6485970365713531e-02 0.0000000000000000e+00
10 3.2875405416504418e-03 1.2941892110972795e-02 0.0000000000000000e+00
11 7.9457988659708580e-03 -3.4406778924542386e-02 0.0000000000000000e+00
12 -7.1450724494896154e-03 -1.6841883949280875e-02 0.0000000000000000e+00
13 1.8210266790420315e-02 2.4288523469547359e-02 0.0000000000000000e+00
14 1.8099327249800113e-02 1.6979957921473679e-02 0.0000000000000000e+00
15 2.6172093244190116e-02 -2.1031353856567601e-02 0.0000000000000000e+00
16 7.6456239176971603e-03 -1.8891587213961277e-02 0.0000000000000000e+00
17 -1.0041686439541602e-02 -1.8128658410756008e-02 0.0000000000000000e+00
18 3.4245275798000185e-03 -8.1435745138143465e-04 0.0000000000000000e+00
19 -4.3025094185701544e-02 5.0130717138103451e-03 0.0000000000000000e+00
20 5.6496434949216212e-03 3.0421983526080728e-03 0.0000000000000000e+00
21 1.2387581982527117e-02 -1.0144944191306307e-03 0.0000000000000000e+00
22 -5.9257387146886614e-04 6.1163248965442646e-04 0.0000000000000000e+00
23 2.8966856990044743e-02 1.7399407133313439e-02 0.0000000000000000e+00
24 -1.5244899744703206e-02 3.5616966050921552e-03 0.0000000000000000e+00
25 3.1357276575109137e-02 -1.2200370652212987e-02 0.0000000000000000e+00
26 3.5071216751515887e-02 -8.5102618976401808e-03 0.0000000000000000e+00
27 9.0532864477158859e-03 -1.3776683327975006e-03 0.0000000000000000e+00
28 3.4225050336329825e-04 1.2807427320790011e-02 0.0000000000000000e+00
29 -2.0721012382033430e-02 -1.0156063513924788e-02 0.0000000000000000e+00
30 -1.9931714973193053e-03 9.1181643528433082e-03 0.0000000000000000e+00
31 1.3737660308189546e-02 3.8465059507468043e-02 0.0000000000000000e+00
32 -4.9339519726698750e-03 -1.1610797885931166e-02 0.0000000000000000e+00
