LAMMPS data file via write_data, version 29 Mar 2019, timestep = 20000000

32 atoms
1 atom types

-1.5000000000000000e+03 1.5000000000000000e+03 xlo xhi
-1.5000000000000000e+03 1.5000000000000000e+03 ylo yhi
-1.5000000000000000e+03 1.5000000000000000e+03 zlo zhi

Masses

1 0.00054858

Pair Coeffs # gauss/cut

1 0.0355436 0 33.6721

Atoms # atomic

1 1 2.1726871510253548e+02 1.1057815572857270e+02 0.0000000000000000e+00 0 0 0
2 1 -2.3794187354551318e+02 1.5045186885137551e+02 0.0000000000000000e+00 0 0 0
3 1 5.9058401948944116e+01 -1.2242535226219847e+02 0.0000000000000000e+00 0 0 0
4 1 1.8149799884890825e+01 2.7690018422219345e+02 0.0000000000000000e+00 0 0 0
5 1 3.5519256358175717e+00 5.0612601057454881e+01 0.0000000000000000e+00 0 0 0
6 1 -1.6630381051261216e+02 1.8321423560490139e+01 0.0000000000000000e+00 0 0 0
7 1 1.6568021036811859e+02 1.4118280773162267e+01 0.0000000000000000e+00 0 0 0
8 1 -9.1350626028657501e+01 -2.0574453306221514e+02 0.0000000000000000e+00 0 0 0
9 1 -9.7479505023070786e+01 -1.4608234863130130e+02 0.0000000000000000e+00 0 0 0
10 1 2.9163441879563965e+02 -7.1678549166600021e+01 0.0000000000000000e+00 0 0 0
11 1 1.9252217888302064e+02 1.1089091061395357e+02 0.0000000000000000e+00 0 0 0
12 1 9.4833322471382189e+01 1.6295931967830530e+01 0.0000000000000000e+00 0 0 0
13 1 -2.6554050968989475e+02 -1.0394816785736963e+02 0.0000000000000000e+00 0 0 0
14 1 2.5182401276741663e+02 2.5608839560966519e+01 0.0000000000000000e+00 0 0 0
15 1 -6.5920122100093934e+01 -4.8440699828744570e+01 0.0000000000000000e+00 0 0 0
16 1 -6.8061376273928445e+01 -3.6076793082111877e+01 0.0000000000000000e+00 0 0 0
17 1 -2.7177743034745566e+02 -1.5085841699470896e+02 0.0000000000000000e+00 0 0 0
18 1 2.1078647274209735e+02 -1.6319754973057488e+02 0.0000000000000000e+00 0 0 0
19 1 9.3390286016453416e+01 1.7573251899034742e+02 0.0000000000000000e+00 0 0 0
20 1 6.1484784106228339e+01 -3.2699621166557556e+01 0.0000000000000000e+00 0 0 0
21 1 2.0464832618404171e+02 -2.4871024904108162e+02 0.0000000000000000e+00 0 0 0
22 1 5.9360732106373774e+01 -7.8587607096791459e+01 0.0000000000000000e+00 0 0 0
23 1 -5.0525376863645349e+01 7.1854658569551376e+01 0.0000000000000000e+00 0 0 0
24 1 1.6802958088424697e+02 -7.5372903137232825e+01 0.0000000000000000e+00 0 0 0
25 1 1.7263633283456163e+00 -7.3695400291913515e+01 0.0000000000000000e+00 0 0 0
26 1 6.7294573723152080e+00 1.8578809652126446e+02 0.0000000000000000e+00 0 0 0
27 1 -1.5264392151091110e+02 5.9874660276687784e+01 0.0000000000000000e+00 0 0 0
28 1 1.1224702357981725e+02 -6.7913454560583617e+01 0.0000000000000000e+00 0 0 0
29 1 -1.0842725727836714e+02 -1.4205446278528197e+02 0.0000000000000000e+00 0 0 0
30 1 -1.5144408669577140e+02 -2.3972127298985271e+02 0.0000000000000000e+00 0 0 0
31 1 -2.0315288503671212e+01 -1.6219482621238387e+02 0.0000000000000000e+00 0 0 0
32 1 -9.4278173986696586e+01 1.3694012678590744e+02 0.0000000000000000e+00 0 0 0

Velocities

1 -1.4066372501137063e-02 -1.1793263616525208e-02 0.0000000000000000e+00
2 9.0585730822075588e-03 9.5115256379461784e-03 0.0000000000000000e+00
3 -9.1430582449336124e-03 -1.0292349161804109e-02 0.0000000000000000e+00
4 -1.5635912495490897e-02 1.0441954464754898e-02 0.0000000000000000e+00
5 -3.7720609913077627e-03 1.7629009302791911e-02 0.0000000000000000e+00
6 -7.9035084632690759e-03 -1.8529900898434121e-02 0.0000000000000000e+00
7 2.3273447133857247e-02 -8.3066560040072953e-03 0.0000000000000000e+00
8 -1.6317286005500992e-02 2.9337413715246244e-02 0.0000000000000000e+00
9 1.8204658875950876e-02 1.1010014248153255e-02 0.0000000000000000e+00
10 2.9260246454939531e-02 -1.0937549991535910e-02 0.0000000000000000e+00
11 1.8925759041271806e-02 -2.2160127096436180e-02 0.0000000000000000e+00
12 -1.3213390043247661e-02 2.4119114821665386e-03 0.0000000000000000e+00
13 8.2083580736754015e-03 -1.1954567610841372e-02 0.0000000000000000e+00
14 4.5295594775381582e-03 1.1298026876126759e-02 0.0000000000000000e+00
15 -2.0724726670436577e-02 -1.9498612035909788e-02 0.0000000000000000e+00
16 7.1645152163930040e-03 3.7135404112419276e-03 0.0000000000000000e+00
17 -8.5776251211634111e-03 1.3079054667258316e-02 0.0000000000000000e+00
18 -1.2304967404642521e-02 -4.6015707821385330e-04 0.0000000000000000e+00
19 -1.8269380216485984e-02 -1.0818219353212357e-02 0.0000000000000000e+00
20 -7.8316809515272760e-03 1.6786681388944531e-03 0.0000000000000000e+00
21 -6.6670027733571873e-03 1.8052901429161457e-03 0.0000000000000000e+00
22 -9.8080980338686556e-03 -3.5009493245451967e-02 0.0000000000000000e+00
23 1.0203851930303036e-02 1.9239730911341207e-02 0.0000000000000000e+00
24 1.9576741998369555e-02 -3.2416336322097124e-02 0.0000000000000000e+00
25 -2.4095765359926819e-02 2.0014488800623603e-02 0.0000000000000000e+00
26 -4.8709565002074164e-03 -2.9616091441345021e-03 0.0000000000000000e+00
27 6.5019425816112853e-03 2.2575469875322864e-02 0.0000000000000000e+00
28 -1.1226852565407851e-02 -9.8199988851101205e-04 0.0000000000000000e+00
29 1.8995728264217939e-02 1.8770999408407149e-03 0.0000000000000000e+00
30 6.4986098993243388e-03 -2.0512848142288598e-02 0.0000000000000000e+00
31 -1.7774661687808006e-02 -1.3919607380011053e-02 0.0000000000000000e+00
32 1.1961537162899041e-02 2.3859836679075977e-03 0.0000000000000000e+00
