LAMMPS data file via write_data, version 29 Mar 2019, timestep = 20000000

32 atoms
1 atom types

-1.5000000000000000e+03 1.5000000000000000e+03 xlo xhi
-1.5000000000000000e+03 1.5000000000000000e+03 ylo yhi
-1.5000000000000000e+03 1.5000000000000000e+03 zlo zhi

Masses

1 0.00054858

Pair Coeffs # gauss/cut

1 0.0355436 0 33.6721

Atoms # atomic

1 1 2.6571885471689939e+02 1.2715012502889812e+02 0.0000000000000000e+00 0 0 0
2 1 -1.9063472369243655e+02 2.3861701195119986e+02 0.0000000000000000e+00 0 0 0
3 1 2.8862577032462600e+01 -9.4598550706109350e+01 0.0000000000000000e+00 0 0 0
4 1 -4.3037092110089567e+01 2.0045320055435846e+02 0.0000000000000000e+00 0 0 0
5 1 6.4470420067450505e+01 1.7033768340925693e+02 0.0000000000000000e+00 0 0 0
6 1 -2.2704736635914642e+02 4.5600726449238230e+01 0.0000000000000000e+00 0 0 0
7 1 1.0358051587398947e+02 1.1768564838179910e+02 0.0000000000000000e+00 0 0 0
8 1 -2.0418097029272321e+01 -2.3859870698648828e+02 0.0000000000000000e+00 0 0 0
9 1 -1.0722749866541474e+02 -1.4252909851260736e+02 0.0000000000000000e+00 0 0 0
10 1 3.2739772844518950e+02 -6.2325133465419881e+01 0.0000000000000000e+00 0 0 0
11 1 1.9493980450019689e+02 3.9665858581057286e+01 0.0000000000000000e+00 0 0 0
12 1 7.2407520154762466e+01 -1.6451676603700949e+02 0.0000000000000000e+00 0 0 0
13 1 -1.8557406945659784e+02 -3.0858330576819357e+00 0.0000000000000000e+00 0 0 0
14 1 1.6439793647808190e+02 -4.1437093973256445e+01 0.0000000000000000e+00 0 0 0
15 1 6.8325463379790136e+01 -1.9780920047403239e+01 0.0000000000000000e+00 0 0 0
16 1 -1.7227393254385032e+02 -2.1403818246335099e+01 0.0000000000000000e+00 0 0 0
17 1 -2.0932317650463762e+02 -2.0684638013194314e+02 0.0000000000000000e+00 0 0 0
18 1 1.6063236642632708e+02 -1.5849124080936193e+02 0.0000000000000000e+00 0 0 0
19 1 9.0935806620188941e+01 1.8674046632333781e+02 0.0000000000000000e+00 0 0 0
20 1 -1.0146648151568577e+01 -1.7671455649666651e+01 0.0000000000000000e+00 0 0 0
21 1 1.9337735471482500e+02 -1.4974836371788761e+01 0.0000000000000000e+00 0 0 0
22 1 -2.4751035329430067e+01 3.1618669300040676e+01 0.0000000000000000e+00 0 0 0
23 1 5.2144864506952743e+01 6.8840388583777468e+01 0.0000000000000000e+00 0 0 0
24 1 1.1620081404896918e+00 -4.5045862970689157e+01 0.0000000000000000e+00 0 0 0
25 1 4.2041504329411099e+00 -1.3955954652587886e+02 0.0000000000000000e+00 0 0 0
26 1 -4.5308293305578594e+01 2.4511711310848330e+02 0.0000000000000000e+00 0 0 0
27 1 -1.4903464355474205e+02 3.9090610902986860e+01 0.0000000000000000e+00 0 0 0
28 1 3.6168485766147214e+01 2.4814854136197631e+01 0.0000000000000000e+00 0 0 0
29 1 -9.1969466866521856e+01 -3.2213349426912110e+01 0.0000000000000000e+00 0 0 0
30 1 -2.1471679363873378e+01 -2.1774485189133782e+02 0.0000000000000000e+00 0 0 0
31 1 -3.9473326377013976e+01 -1.9559290045880923e+02 0.0000000000000000e+00 0 0 0
32 1 -8.7535867018111517e+01 8.5032020685036485e+01 0.0000000000000000e+00 0 0 0

Velocities

1 -1.0129270187848849e-02 4.7055413144701632e-03 0.0000000000000000e+00
2 4.4526480911810844e-03 1.4253057963859967e-02 0.0000000000000000e+00
3 2.7424424286594720e-03 5.7304413365470465e-03 0.0000000000000000e+00
4 2.8824435508354075e-04 -1.4780265661873543e-02 0.0000000000000000e+00
5 1.6828448298001623e-02 -5.7421004264187033e-03 0.0000000000000000e+00
6 5.3778322823348880e-03 9.1018840915490975e-03 0.0000000000000000e+00
7 2.1367431363810735e-03 3.6785477027468554e-03 0.0000000000000000e+00
8 -3.7363393831527955e-03 1.4084343307802579e-03 0.0000000000000000e+00
9 -1.5810788309875357e-02 1.5873684559664689e-02 0.0000000000000000e+00
10 1.1968405266178685e-02 1.7010845797196358e-02 0.0000000000000000e+00
11 -2.1844197664778204e-03 -1.1679258499966946e-02 0.0000000000000000e+00
12 2.1591403647988765e-02 -6.6206294170006600e-03 0.0000000000000000e+00
13 1.1281829351863780e-02 1.9565723087793307e-02 0.0000000000000000e+00
14 1.2916817974837191e-03 1.6433199848849705e-02 0.0000000000000000e+00
15 4.2187355032797776e-03 2.6099314417961244e-02 0.0000000000000000e+00
16 -8.0724406675178207e-03 6.2182503340717319e-03 0.0000000000000000e+00
17 1.5756415445191737e-02 -6.4611456529584188e-03 0.0000000000000000e+00
18 -1.2228419480003687e-02 -1.1650121668342667e-02 0.0000000000000000e+00
19 4.1723325981150193e-03 -2.0498852732189310e-03 0.0000000000000000e+00
20 1.5544168065997423e-02 -1.6717459348291028e-02 0.0000000000000000e+00
21 -1.8498522558938385e-02 -3.0789095104471864e-02 0.0000000000000000e+00
22 1.6514678419097543e-02 -4.0831541800819054e-03 0.0000000000000000e+00
23 -7.9801549837425973e-05 1.8821996659053257e-02 0.0000000000000000e+00
24 1.0526086557337047e-02 -4.6703547344331270e-03 0.0000000000000000e+00
25 -6.8202009373590708e-03 -6.1178873295953803e-03 0.0000000000000000e+00
26 -7.1150071323192463e-03 -1.1857838593038770e-02 0.0000000000000000e+00
27 -8.7412198664628890e-03 -4.2646261937038668e-03 0.0000000000000000e+00
28 -1.3059191896327855e-02 -8.8197268827310982e-03 0.0000000000000000e+00
29 -8.6535886645741373e-03 3.1275704212017666e-05 0.0000000000000000e+00
30 1.6220341325732746e-02 1.3453873269731418e-02 0.0000000000000000e+00
31 2.1108141211463378e-02 -9.2130659323647612e-03 0.0000000000000000e+00
32 -2.9275903037615101e-02 -5.3089520650159506e-03 0.0000000000000000e+00
