LAMMPS data file via write_data, version 29 Mar 2019, timestep = 20000000

32 atoms
1 atom types

-1.5000000000000000e+03 1.5000000000000000e+03 xlo xhi
-1.5000000000000000e+03 1.5000000000000000e+03 ylo yhi
-1.5000000000000000e+03 1.5000000000000000e+03 zlo zhi

Masses

1 0.00054858

Pair Coeffs # gauss/cut

1 0.0118479 0 33.6721

Atoms # atomic

1 1 2.8340264809717159e+01 1.4655528893653258e+02 0.0000000000000000e+00 0 0 0
2 1 6.8165982378932796e+01 5.5697268010958830e+01 0.0000000000000000e+00 0 0 0
3 1 8.4612314311125701e+01 4.0708552928397754e+00 0.0000000000000000e+00 0 0 0
4 1 3.3583407031113545e+01 -1.0459706477690500e+02 0.0000000000000000e+00 0 0 0
5 1 -5.7038208478927231e+01 -8.1951409322257703e+01 0.0000000000000000e+00 0 0 0
6 1 -1.3447161201411151e+02 -8.6451605881908876e+01 0.0000000000000000e+00 0 0 0
7 1 6.9686559688271274e+01 -1.1342818821014274e+02 0.0000000000000000e+00 0 0 0
8 1 1.2529198859922192e+02 -1.1679618777820899e+02 0.0000000000000000e+00 0 0 0
9 1 4.5395943384924301e+01 3.8616295536314020e+01 0.0000000000000000e+00 0 0 0
10 1 -6.3503939602850380e+01 5.4160992567742120e+01 0.0000000000000000e+00 0 0 0
11 1 2.9187338337509313e+01 7.9964238628902578e+01 0.0000000000000000e+00 0 0 0
12 1 4.8153791318727592e+01 -1.8381977609119005e+01 0.0000000000000000e+00 0 0 0
13 1 4.6514519153561364e+00 1.9002890292217071e+01 0.0000000000000000e+00 0 0 0
14 1 -5.9215082214936139e+01 3.8638256751990163e+01 0.0000000000000000e+00 0 0 0
15 1 2.1208029299456993e-01 -2.9987397883932825e+01 0.0000000000000000e+00 0 0 0
16 1 1.8831107640616895e+02 9.0447996819291432e-01 0.0000000000000000e+00 0 0 0
17 1 2.0302442478177927e+01 9.4171247462924814e+00 0.0000000000000000e+00 0 0 0
18 1 9.5542438022726756e+01 1.6706248343047591e+01 0.0000000000000000e+00 0 0 0
19 1 -8.9305864902103664e+01 3.2005164187476964e+01 0.0000000000000000e+00 0 0 0
20 1 -2.1317756349609792e+02 -4.0024529729225229e+01 0.0000000000000000e+00 0 0 0
21 1 1.2120891629322990e+02 -9.2986693170949167e+01 0.0000000000000000e+00 0 0 0
22 1 -7.3301561301527713e+01 1.6677538432695059e+02 0.0000000000000000e+00 0 0 0
23 1 -1.2149740892957823e+02 1.0615131080087119e+02 0.0000000000000000e+00 0 0 0
24 1 3.3375124723464173e+00 1.0799784683257126e+02 0.0000000000000000e+00 0 0 0
25 1 2.5480616294810339e+01 8.1874841135908113e+01 0.0000000000000000e+00 0 0 0
26 1 4.6725859379549718e+01 -6.5792404643901492e+01 0.0000000000000000e+00 0 0 0
27 1 -6.0403106678387715e+01 6.2613483487249333e+01 0.0000000000000000e+00 0 0 0
28 1 1.0976539926734939e+02 5.2978320727514607e+01 0.0000000000000000e+00 0 0 0
29 1 5.2999991487713807e+01 9.8310159472343173e+01 0.0000000000000000e+00 0 0 0
30 1 2.2672147125964108e+02 -9.0152975103482547e+00 0.0000000000000000e+00 0 0 0
31 1 -1.2899450363317063e+01 -5.7488050265941524e+01 0.0000000000000000e+00 0 0 0
32 1 -4.8426239430792798e+01 -1.2203770244683508e+02 0.0000000000000000e+00 0 0 0

Velocities

1 5.3878844386524814e-03 3.1796342163305333e-02 0.0000000000000000e+00
2 4.4575885732838477e-03 1.4204181846904779e-02 0.0000000000000000e+00
3 9.3563984958623912e-03 5.6929295491541985e-04 0.0000000000000000e+00
4 2.4687914979074452e-02 -3.3264748579385592e-02 0.0000000000000000e+00
5 -7.6375634069321243e-03 -1.6346207780719952e-02 0.0000000000000000e+00
6 2.1292162892061553e-03 1.6359481311346329e-02 0.0000000000000000e+00
7 -9.0514370653271715e-03 1.3209425844435702e-02 0.0000000000000000e+00
8 8.2230872183864587e-03 -2.4328284355232210e-02 0.0000000000000000e+00
9 2.7460227255403451e-03 -1.9090777532076594e-02 0.0000000000000000e+00
10 5.4161495350340347e-03 -1.2336709425486814e-02 0.0000000000000000e+00
11 1.4545559972843871e-02 -3.2041499732672002e-03 0.0000000000000000e+00
12 -1.4181770878582915e-02 -3.4128997218662492e-02 0.0000000000000000e+00
13 6.6068944395416976e-03 1.0149234338035358e-02 0.0000000000000000e+00
14 9.9677265350115261e-03 8.6872042310642637e-03 0.0000000000000000e+00
15 2.2811667374088231e-03 2.8420736120245769e-03 0.0000000000000000e+00
16 3.8925615903664438e-03 4.9822609256314366e-03 0.0000000000000000e+00
17 7.1910636405566608e-03 -8.5077026878290494e-04 0.0000000000000000e+00
18 2.6643195487477248e-02 1.3865137997755054e-02 0.0000000000000000e+00
19 -8.9246344795184483e-03 -3.7011266690852602e-03 0.0000000000000000e+00
20 7.0831813094430927e-03 9.0528294407155353e-03 0.0000000000000000e+00
21 3.3834358917743076e-04 1.6960509786095007e-02 0.0000000000000000e+00
22 -3.8429372524957936e-03 -9.9391267893139418e-03 0.0000000000000000e+00
23 -2.7694926229374948e-02 2.1566572369063952e-02 0.0000000000000000e+00
24 2.4807929281831244e-03 -6.2928268811651067e-03 0.0000000000000000e+00
25 -3.1635050000445870e-02 -4.0579600981963150e-03 0.0000000000000000e+00
26 9.6507409854699345e-03 3.2476546142938497e-03 0.0000000000000000e+00
27 9.8054395133459066e-03 -1.6319612607235631e-02 0.0000000000000000e+00
28 -2.3211946938441225e-02 -1.7451257982532245e-03 0.0000000000000000e+00
29 -3.0352728676679170e-03 -5.2238668866535342e-03 0.0000000000000000e+00
30 4.8063848009444474e-03 2.1770866983289609e-02 0.0000000000000000e+00
31 -1.0898423288578988e-02 -3.5903584945608949e-03 0.0000000000000000e+00
32 -2.4311404307763933e-03 6.4974274297581831e-03 0.0000000000000000e+00
