LAMMPS data file via write_data, version 29 Mar 2019, timestep = 20000000

32 atoms
1 atom types

-1.5000000000000000e+03 1.5000000000000000e+03 xlo xhi
-1.5000000000000000e+03 1.5000000000000000e+03 ylo yhi
-1.5000000000000000e+03 1.5000000000000000e+03 zlo zhi

Masses

1 0.00054858

Pair Coeffs # gauss/cut

1 0.0355436 0 33.6721

Atoms # atomic

1 1 1.6241584107316385e+02 1.1435085752544174e+02 0.0000000000000000e+00 0 0 0
2 1 -1.5872981214910428e+02 1.2625158946446241e+02 0.0000000000000000e+00 0 0 0
3 1 1.6752142627454681e+01 -1.2738842625709781e+01 0.0000000000000000e+00 0 0 0
4 1 -2.5887980865321992e+01 1.0816344236253650e+02 0.0000000000000000e+00 0 0 0
5 1 -3.6853374510504722e+01 2.1202123385489278e+02 0.0000000000000000e+00 0 0 0
6 1 -1.7398818874055621e+02 -4.5244966634089103e+01 0.0000000000000000e+00 0 0 0
7 1 -1.8839183130941489e+01 2.3377655000079614e+02 0.0000000000000000e+00 0 0 0
8 1 -2.6562694107766966e+01 -1.0126991010014450e+02 0.0000000000000000e+00 0 0 0
9 1 -1.4582147982600935e+02 -1.0127130282784216e+02 0.0000000000000000e+00 0 0 0
10 1 1.2494610171882246e+02 -2.0964851063243106e+02 0.0000000000000000e+00 0 0 0
11 1 8.0203587195487941e+01 -1.3828404319652913e+02 0.0000000000000000e+00 0 0 0
12 1 1.2686421527493168e+02 2.8972048559577502e+01 0.0000000000000000e+00 0 0 0
13 1 -1.4939753707343741e+02 -3.2735546390464030e+01 0.0000000000000000e+00 0 0 0
14 1 1.1567939142746914e+02 1.3860769124840223e+02 0.0000000000000000e+00 0 0 0
15 1 1.1687777062657086e+02 8.4899921340379663e+01 0.0000000000000000e+00 0 0 0
16 1 -1.2295691401659255e+02 5.7436437107015863e+01 0.0000000000000000e+00 0 0 0
17 1 -1.2257390993115422e+02 -2.5317405195174410e+02 0.0000000000000000e+00 0 0 0
18 1 1.6432296951804719e+02 -9.2838216859802770e+01 0.0000000000000000e+00 0 0 0
19 1 9.0990738300306077e+01 8.6094816265835476e+01 0.0000000000000000e+00 0 0 0
20 1 5.8968744198903158e+00 8.2602180794857034e+01 0.0000000000000000e+00 0 0 0
21 1 1.8583844154542470e+02 -3.1486264099262641e+01 0.0000000000000000e+00 0 0 0
22 1 -1.0031153545501752e+02 -6.9657010006122757e+00 0.0000000000000000e+00 0 0 0
23 1 -9.2360593907498327e+01 7.2809825289349021e+01 0.0000000000000000e+00 0 0 0
24 1 1.4703832667701374e+01 5.3522526498967402e+01 0.0000000000000000e+00 0 0 0
25 1 -4.1381886874721992e+01 -7.6698916880398485e+01 0.0000000000000000e+00 0 0 0
26 1 -2.0370641514000912e+01 1.0720990720586288e+02 0.0000000000000000e+00 0 0 0
27 1 -2.2236147959781803e+02 3.7186286267636682e+01 0.0000000000000000e+00 0 0 0
28 1 1.0592642877701753e+02 6.8759731436378260e+01 0.0000000000000000e+00 0 0 0
29 1 -1.0962736763552400e+02 -8.7528112145510221e+01 0.0000000000000000e+00 0 0 0
30 1 -2.3779650854214747e+01 -7.9507980260097497e+01 0.0000000000000000e+00 0 0 0
31 1 -1.8519403730790219e+02 -1.4062610384916883e+02 0.0000000000000000e+00 0 0 0
32 1 3.6755074560798938e+01 -6.6126732118702861e+01 0.0000000000000000e+00 0 0 0

Velocities

1 -7.1174805115357623e-03 2.3708826521069760e-03 0.0000000000000000e+00
2 -2.1041905861432141e-02 1.0677125266676893e-02 0.0000000000000000e+00
3 -1.6062276852341035e-02 1.8052369952882161e-02 0.0000000000000000e+00
4 2.1360691606018847e-02 8.3786106732632315e-03 0.0000000000000000e+00
5 -1.1678928071342831e-02 -4.1119428172485074e-02 0.0000000000000000e+00
6 8.5330565030881551e-03 1.6349784596567336e-02 0.0000000000000000e+00
7 3.6362912343856330e-02 -3.3714644473405002e-04 0.0000000000000000e+00
8 -6.2839535170037264e-02 1.5515782279490582e-02 0.0000000000000000e+00
9 -8.9479914353238123e-03 6.6743476501495242e-03 0.0000000000000000e+00
10 -1.5662931568150709e-02 6.6821649155707806e-03 0.0000000000000000e+00
11 4.7789002957002056e-03 -4.1252085052767208e-02 0.0000000000000000e+00
12 1.1668263167234464e-03 7.2990310157179340e-03 0.0000000000000000e+00
13 -8.2820859781924400e-03 -2.0836156292662417e-02 0.0000000000000000e+00
14 -4.9367294136918004e-03 -3.7154786039697682e-03 0.0000000000000000e+00
15 2.8925166403659129e-02 8.9368603304592058e-04 0.0000000000000000e+00
16 -1.4504915165657181e-02 4.6717334434623874e-03 0.0000000000000000e+00
17 3.5203454105879272e-03 -4.1693958207800384e-02 0.0000000000000000e+00
18 -1.2309947034708668e-02 5.1089208980331967e-03 0.0000000000000000e+00
19 -3.4329342935458237e-02 -8.5757479977476240e-03 0.0000000000000000e+00
20 2.3772203121719109e-02 1.8551696513282910e-03 0.0000000000000000e+00
21 -1.2155349512340633e-02 -1.6118467883206807e-02 0.0000000000000000e+00
22 -3.0266354137319170e-03 -9.8126795237866958e-03 0.0000000000000000e+00
23 3.0698781332019483e-02 3.9592885505346020e-04 0.0000000000000000e+00
24 1.7939448373791734e-02 -1.5024037230015690e-03 0.0000000000000000e+00
25 6.2108887558537454e-03 1.9889025626484577e-02 0.0000000000000000e+00
26 1.7919779301755264e-03 1.7259470409831033e-02 0.0000000000000000e+00
27 -3.2048002099447262e-02 -3.4129370708221980e-02 0.0000000000000000e+00
28 -7.6892798761010548e-03 6.0845610600438879e-03 0.0000000000000000e+00
29 1.4482181046168489e-03 -3.0238281470698260e-03 0.0000000000000000e+00
30 -5.6773171787794473e-03 -9.3057660354831304e-03 0.0000000000000000e+00
31 1.2794357266606802e-02 -7.8153888076637340e-03 0.0000000000000000e+00
32 3.1878768326949455e-02 8.7017196150639096e-03 0.0000000000000000e+00
