LAMMPS data file via write_data, version 29 Mar 2019, timestep = 20000000

32 atoms
1 atom types

-1.5000000000000000e+03 1.5000000000000000e+03 xlo xhi
-1.5000000000000000e+03 1.5000000000000000e+03 ylo yhi
-1.5000000000000000e+03 1.5000000000000000e+03 zlo zhi

Masses

1 0.00054858

Pair Coeffs # gauss/cut

1 0.0118479 0 33.6721

Atoms # atomic

1 1 7.4250244519436963e+00 9.6318336565370686e+01 0.0000000000000000e+00 0 0 0
2 1 1.9603533446383853e+01 -4.4989129514739069e+01 0.0000000000000000e+00 0 0 0
3 1 6.5384321007889440e+01 1.5834891666072968e+00 0.0000000000000000e+00 0 0 0
4 1 9.9357281704727697e+01 -1.0363475631006233e+01 0.0000000000000000e+00 0 0 0
5 1 -3.5084072990885133e+01 -1.3685839091974876e+02 0.0000000000000000e+00 0 0 0
6 1 -3.5128358188546791e+01 -9.2927599696261211e+01 0.0000000000000000e+00 0 0 0
7 1 -8.6598231254275746e+01 -2.3085278600259706e+01 0.0000000000000000e+00 0 0 0
8 1 4.5477006957563404e+01 -7.9134490305787196e+01 0.0000000000000000e+00 0 0 0
9 1 7.5136720488872101e+01 -1.0308237184366988e+02 0.0000000000000000e+00 0 0 0
10 1 -4.2979646737871356e+01 1.2963465751532419e+02 0.0000000000000000e+00 0 0 0
11 1 -1.3876554893102693e+02 7.6070713507783751e+01 0.0000000000000000e+00 0 0 0
12 1 -1.1805702100997385e+01 -5.7968789493798234e+01 0.0000000000000000e+00 0 0 0
13 1 1.8883875216750195e+02 -1.1570980201361563e+02 0.0000000000000000e+00 0 0 0
14 1 -1.4758175638113681e+02 -1.2778422133569352e+02 0.0000000000000000e+00 0 0 0
15 1 -1.8662197044141158e+02 -1.4157750577876190e+01 0.0000000000000000e+00 0 0 0
16 1 5.2830345879989274e+01 -1.5673690901493441e+02 0.0000000000000000e+00 0 0 0
17 1 1.7816000018442602e+02 8.7518938441553416e+01 0.0000000000000000e+00 0 0 0
18 1 2.1143748780512445e+02 4.1935101453871866e+00 0.0000000000000000e+00 0 0 0
19 1 6.5082103099269276e+01 2.1259611785283418e+01 0.0000000000000000e+00 0 0 0
20 1 -2.9673314125908476e+01 3.8878445430373077e+01 0.0000000000000000e+00 0 0 0
21 1 -4.1278307164586067e+01 2.1027191848840943e+02 0.0000000000000000e+00 0 0 0
22 1 -1.3683198016357437e+02 -7.8715293905355949e+01 0.0000000000000000e+00 0 0 0
23 1 -1.5635262216125213e+02 1.8479459752373000e+02 0.0000000000000000e+00 0 0 0
24 1 -6.7423440995874685e+01 2.2156506765117097e+01 0.0000000000000000e+00 0 0 0
25 1 6.3435985319267537e+01 1.2772691000267720e+01 0.0000000000000000e+00 0 0 0
26 1 4.7766979383687406e+01 2.4216787604168530e+01 0.0000000000000000e+00 0 0 0
27 1 -6.0814432898633648e+01 -8.2233538307331742e+01 0.0000000000000000e+00 0 0 0
28 1 9.4207765754660826e+01 6.9664282444907897e+01 0.0000000000000000e+00 0 0 0
29 1 2.7828275710829807e+01 9.1860328393075847e+01 0.0000000000000000e+00 0 0 0
30 1 2.0097518899148395e+02 -4.8787640225582038e+01 0.0000000000000000e+00 0 0 0
31 1 2.3820730561327153e+02 -7.9876543093716745e-01 0.0000000000000000e+00 0 0 0
32 1 -5.6026103305713320e+01 2.2944388418327381e+02 0.0000000000000000e+00 0 0 0

Velocities

1 1.9950577106285065e-02 -9.1531048859033196e-02 0.0000000000000000e+00
2 1.5342128619678386e-01 -4.5183505617241139e-02 0.0000000000000000e+00
3 1.3056399161418616e-01 -1.1476641571568012e-01 0.0000000000000000e+00
4 3.1806955600564690e-01 -9.8619236847521732e-02 0.0000000000000000e+00
5 9.2819650137294776e-02 1.3153155108182735e-01 0.0000000000000000e+00
6 -1.1404068634668241e-01 -1.4939431408191786e-01 0.0000000000000000e+00
7 -9.4778682373230408e-02 -9.9372225049053950e-02 0.0000000000000000e+00
8 -8.8506774329755206e-02 1.0000350266992002e-01 0.0000000000000000e+00
9 -9.1265413094384018e-02 1.5283292013505029e-01 0.0000000000000000e+00
10 2.2732362747172016e-01 2.5681952759044082e-02 0.0000000000000000e+00
11 8.0624117536948314e-02 1.6439246887534929e-02 0.0000000000000000e+00
12 1.2717410983768984e-01 2.3670020442614340e-01 0.0000000000000000e+00
13 1.4502035768122409e-01 2.3798497442952229e-01 0.0000000000000000e+00
14 -3.0332641524762904e-01 -2.4135988562418353e-01 0.0000000000000000e+00
15 -6.3590410694166516e-02 -1.2249176931408610e-01 0.0000000000000000e+00
16 5.7794603974008645e-02 -5.2972906463557290e-01 0.0000000000000000e+00
17 -4.4993183577449476e-02 -2.1637187963451546e-01 0.0000000000000000e+00
18 2.8934002608803361e-01 -1.6615363107710807e-01 0.0000000000000000e+00
19 7.1352177180974427e-03 -3.5826573376727550e-01 0.0000000000000000e+00
20 -1.0458292864049042e-01 4.1749097856085812e-02 0.0000000000000000e+00
21 -3.0625731040416687e-02 9.1640677558240721e-02 0.0000000000000000e+00
22 1.0581913895738441e-01 1.9408651936941787e-01 0.0000000000000000e+00
23 -1.4931887917801659e-02 2.9551094209093587e-01 0.0000000000000000e+00
24 -1.6434643419920200e-01 1.7414201988196334e-01 0.0000000000000000e+00
25 -1.4990112115031953e-01 -8.7227882600704992e-02 0.0000000000000000e+00
26 1.0489785267322445e-01 -9.0440114325533075e-02 0.0000000000000000e+00
27 7.8541523612912473e-02 -1.0185156787148775e-01 0.0000000000000000e+00
28 5.6871625332508231e-02 -8.2137256799611924e-02 0.0000000000000000e+00
29 -4.6422365066968646e-01 -1.8662921745924199e-01 0.0000000000000000e+00
30 1.6820295512378300e-01 4.9205578984362501e-02 0.0000000000000000e+00
31 3.0249123305890326e-02 -4.0189377295585382e-01 0.0000000000000000e+00
32 1.5171590561489753e-01 -2.0335076126056242e-01 0.0000000000000000e+00
